<?xml version="1.0"?>
<VTKFile type="UnstructuredGrid"  version="0.1"  >
<UnstructuredGrid>
<Piece  NumberOfPoints="282" NumberOfCells="498">
<Points>
<DataArray  type="Float64"  NumberOfComponents="3"  format="ascii">0 0 0  0.03125 0 0  0.03125 0.03125 0  0 0.03125 0  0.0625 0 0  0.0625 0.03125 0  0.09375 0 0  0.09375 0.03125 0  0.125 0 0  0.125 0.03125 0  0.15625 0 0  0.15625 0.03125 0  0.1875 0 0  0.1875 0.03125 0  0.21875 0 0  0.21875 0.03125 0  0.25 0 0  0.25 0.03125 0  0.28125 0 0  0.28125 0.03125 0  0.3125 0 0  0.3125 0.03125 0  0.34375 0 0  0.34375 0.03125 0  0.03125 0.0625 0  0 0.0625 0  0.0625 0.0625 0  0.09375 0.0625 0  0.125 0.0625 0  0.15625 0.0625 0  0.1875 0.0625 0  0.21875 0.0625 0  0.25 0.0625 0  0.28125 0.0625 0  0.3125 0.0625 0  0.34375 0.0625 0  0.375 0.0625 0  0.03125 0.09375 0  0 0.09375 0  0.0625 0.09375 0  0.09375 0.09375 0  0.125 0.09375 0  0.15625 0.09375 0  0.1875 0.09375 0  0.21875 0.09375 0  0.25 0.09375 0  0.28125 0.09375 0  0.3125 0.09375 0  0.34375 0.09375 0  0.375 0.09375 0  0.03125 0.125 0  0 0.125 0  0.0625 0.125 0  0.09375 0.125 0  0.125 0.125 0  0.15625 0.125 0  0.1875 0.125 0  0.21875 0.125 0  0.25 0.125 0  0.28125 0.125 0  0.3125 0.125 0  0.34375 0.125 0  0.375 0.125 0  0.40625 0.125 0  0.03125 0.15625 0  0 0.15625 0  0.0625 0.15625 0  0.09375 0.15625 0  0.125 0.15625 0  0.15625 0.15625 0  0.1875 0.15625 0  0.21875 0.15625 0  0.25 0.15625 0  0.28125 0.15625 0  0.3125 0.15625 0  0.34375 0.15625 0  0.375 0.15625 0  0.40625 0.15625 0  0.4375 0.15625 0  0.03125 0.1875 0  0 0.1875 0  0.0625 0.1875 0  0.09375 0.1875 0  0.125 0.1875 0  0.15625 0.1875 0  0.1875 0.1875 0  0.21875 0.1875 0  0.25 0.1875 0  0.28125 0.1875 0  0.3125 0.1875 0  0.34375 0.1875 0  0.375 0.1875 0  0.40625 0.1875 0  0.4375 0.1875 0  0.46875 0.1875 0  0.03125 0.21875 0  0 0.21875 0  0.0625 0.21875 0  0.09375 0.21875 0  0.125 0.21875 0  0.15625 0.21875 0  0.1875 0.21875 0  0.21875 0.21875 0  0.25 0.21875 0  0.28125 0.21875 0  0.3125 0.21875 0  0.34375 0.21875 0  0.375 0.21875 0  0.40625 0.21875 0  0.4375 0.21875 0  0.46875 0.21875 0  0.5 0.21875 0  0.03125 0.25 0  0 0.25 0  0.0625 0.25 0  0.09375 0.25 0  0.125 0.25 0  0.15625 0.25 0  0.1875 0.25 0  0.21875 0.25 0  0.25 0.25 0  0.28125 0.25 0  0.3125 0.25 0  0.34375 0.25 0  0.375 0.25 0  0.40625 0.25 0  0.4375 0.25 0  0.46875 0.25 0  0.5 0.25 0  0.53125 0.25 0  0.03125 0.28125 0  0 0.28125 0  0.0625 0.28125 0  0.09375 0.28125 0  0.125 0.28125 0  0.15625 0.28125 0  0.1875 0.28125 0  0.21875 0.28125 0  0.25 0.28125 0  0.28125 0.28125 0  0.3125 0.28125 0  0.34375 0.28125 0  0.375 0.28125 0  0.40625 0.28125 0  0.4375 0.28125 0  0.46875 0.28125 0  0.5 0.28125 0  0.53125 0.28125 0  0.5625 0.28125 0  0.03125 0.3125 0  0 0.3125 0  0.0625 0.3125 0  0.09375 0.3125 0  0.125 0.3125 0  0.15625 0.3125 0  0.1875 0.3125 0  0.21875 0.3125 0  0.25 0.3125 0  0.28125 0.3125 0  0.3125 0.3125 0  0.34375 0.3125 0  0.375 0.3125 0  0.40625 0.3125 0  0.4375 0.3125 0  0.46875 0.3125 0  0.5 0.3125 0  0.53125 0.3125 0  0.5625 0.3125 0  0.59375 0.3125 0  0.03125 0.34375 0  0 0.34375 0  0.0625 0.34375 0  0.09375 0.34375 0  0.125 0.34375 0  0.15625 0.34375 0  0.1875 0.34375 0  0.21875 0.34375 0  0.25 0.34375 0  0.28125 0.34375 0  0.3125 0.34375 0  0.34375 0.34375 0  0.375 0.34375 0  0.40625 0.34375 0  0.4375 0.34375 0  0.46875 0.34375 0  0.5 0.34375 0  0.53125 0.34375 0  0.5625 0.34375 0  0.59375 0.34375 0  0.625 0.34375 0  0.03125 0.375 0  0.0625 0.375 0  0.09375 0.375 0  0.125 0.375 0  0.15625 0.375 0  0.1875 0.375 0  0.21875 0.375 0  0.25 0.375 0  0.28125 0.375 0  0.3125 0.375 0  0.34375 0.375 0  0.375 0.375 0  0.40625 0.375 0  0.4375 0.375 0  0.46875 0.375 0  0.5 0.375 0  0.53125 0.375 0  0.5625 0.375 0  0.59375 0.375 0  0.625 0.375 0  0.65625 0.375 0  0.0625 0.40625 0  0.09375 0.40625 0  0.125 0.40625 0  0.15625 0.40625 0  0.1875 0.40625 0  0.21875 0.40625 0  0.25 0.40625 0  0.28125 0.40625 0  0.3125 0.40625 0  0.34375 0.40625 0  0.375 0.40625 0  0.40625 0.40625 0  0.4375 0.40625 0  0.46875 0.40625 0  0.5 0.40625 0  0.53125 0.40625 0  0.5625 0.40625 0  0.59375 0.40625 0  0.625 0.40625 0  0.65625 0.40625 0  0.6875 0.40625 0  0.09375 0.4375 0  0.125 0.4375 0  0.15625 0.4375 0  0.1875 0.4375 0  0.21875 0.4375 0  0.25 0.4375 0  0.28125 0.4375 0  0.3125 0.4375 0  0.34375 0.4375 0  0.375 0.4375 0  0.40625 0.4375 0  0.4375 0.4375 0  0.46875 0.4375 0  0.5 0.4375 0  0.53125 0.4375 0  0.5625 0.4375 0  0.59375 0.4375 0  0.625 0.4375 0  0.65625 0.4375 0  0.6875 0.4375 0  0.71875 0.4375 0  0.25 0.46875 0  0.28125 0.46875 0  0.3125 0.46875 0  0.34375 0.46875 0  0.375 0.46875 0  0.40625 0.46875 0  0.4375 0.46875 0  0.46875 0.46875 0  0.5 0.46875 0  0.53125 0.46875 0  0.5625 0.46875 0  0.59375 0.46875 0  0.625 0.46875 0  0.65625 0.46875 0  0.6875 0.46875 0  0.71875 0.46875 0  0.75 0.46875 0  0.5625 0.5 0  0.59375 0.5 0  0.625 0.5 0  0.65625 0.5 0  0.6875 0.5 0  0.71875 0.5 0  0.75 0.5 0  0.65625 0.53125 0  0.6875 0.53125 0  0.71875 0.53125 0  0.75 0.53125 0  0.78125 0.53125 0  </DataArray>
</Points>
<Cells>
<DataArray  type="UInt32"  Name="connectivity"  format="ascii">0 1 2  0 3 2  1 4 5  1 2 5  4 6 7  4 5 7  6 8 9  6 7 9  8 10 11  8 9 11  10 12 13  10 11 13  12 14 15  12 13 15  14 16 17  14 15 17  16 18 19  16 17 19  18 20 21  18 19 21  20 22 23  20 21 23  3 2 24  3 25 24  2 5 26  2 24 26  5 7 27  5 26 27  7 9 28  7 27 28  9 11 29  9 28 29  11 13 30  11 29 30  13 15 31  13 30 31  15 17 32  15 31 32  17 19 33  17 32 33  19 21 34  19 33 34  21 23 35  21 34 35  23 35 36  25 24 37  25 38 37  24 26 39  24 37 39  26 27 40  26 39 40  27 28 41  27 40 41  28 29 42  28 41 42  29 30 43  29 42 43  30 31 44  30 43 44  31 32 45  31 44 45  32 33 46  32 45 46  33 34 47  33 46 47  34 35 48  34 47 48  35 36 49  35 48 49  38 37 50  38 51 50  37 39 52  37 50 52  39 40 53  39 52 53  40 41 54  40 53 54  41 42 55  41 54 55  42 43 56  42 55 56  43 44 57  43 56 57  44 45 58  44 57 58  45 46 59  45 58 59  46 47 60  46 59 60  47 48 61  47 60 61  48 49 62  48 61 62  49 62 63  51 50 64  51 65 64  50 52 66  50 64 66  52 53 67  52 66 67  53 54 68  53 67 68  54 55 69  54 68 69  55 56 70  55 69 70  56 57 71  56 70 71  57 58 72  57 71 72  58 59 73  58 72 73  59 60 74  59 73 74  60 61 75  60 74 75  61 62 76  61 75 76  62 63 77  62 76 77  63 77 78  65 64 79  65 80 79  64 66 81  64 79 81  66 67 82  66 81 82  67 68 83  67 82 83  68 69 84  68 83 84  69 70 85  69 84 85  70 71 86  70 85 86  71 72 87  71 86 87  72 73 88  72 87 88  73 74 89  73 88 89  74 75 90  74 89 90  75 76 91  75 90 91  76 77 92  76 91 92  77 78 93  77 92 93  78 93 94  80 79 95  80 96 95  79 81 97  79 95 97  81 82 98  81 97 98  82 83 99  82 98 99  83 84 100  83 99 100  84 85 101  84 100 101  85 86 102  85 101 102  86 87 103  86 102 103  87 88 104  87 103 104  88 89 105  88 104 105  89 90 106  89 105 106  90 91 107  90 106 107  91 92 108  91 107 108  92 93 109  92 108 109  93 94 110  93 109 110  94 110 111  96 95 112  96 113 112  95 97 114  95 112 114  97 98 115  97 114 115  98 99 116  98 115 116  99 100 117  99 116 117  100 101 118  100 117 118  101 102 119  101 118 119  102 103 120  102 119 120  103 104 121  103 120 121  104 105 122  104 121 122  105 106 123  105 122 123  106 107 124  106 123 124  107 108 125  107 124 125  108 109 126  108 125 126  109 110 127  109 126 127  110 111 128  110 127 128  111 128 129  113 112 130  113 131 130  112 114 132  112 130 132  114 115 133  114 132 133  115 116 134  115 133 134  116 117 135  116 134 135  117 118 136  117 135 136  118 119 137  118 136 137  119 120 138  119 137 138  120 121 139  120 138 139  121 122 140  121 139 140  122 123 141  122 140 141  123 124 142  123 141 142  124 125 143  124 142 143  125 126 144  125 143 144  126 127 145  126 144 145  127 128 146  127 145 146  128 129 147  128 146 147  129 147 148  131 130 149  131 150 149  130 132 151  130 149 151  132 133 152  132 151 152  133 134 153  133 152 153  134 135 154  134 153 154  135 136 155  135 154 155  136 137 156  136 155 156  137 138 157  137 156 157  138 139 158  138 157 158  139 140 159  139 158 159  140 141 160  140 159 160  141 142 161  141 160 161  142 143 162  142 161 162  143 144 163  143 162 163  144 145 164  144 163 164  145 146 165  145 164 165  146 147 166  146 165 166  147 148 167  147 166 167  148 167 168  150 149 169  150 170 169  149 151 171  149 169 171  151 152 172  151 171 172  152 153 173  152 172 173  153 154 174  153 173 174  154 155 175  154 174 175  155 156 176  155 175 176  156 157 177  156 176 177  157 158 178  157 177 178  158 159 179  158 178 179  159 160 180  159 179 180  160 161 181  160 180 181  161 162 182  161 181 182  162 163 183  162 182 183  163 164 184  163 183 184  164 165 185  164 184 185  165 166 186  165 185 186  166 167 187  166 186 187  167 168 188  167 187 188  168 188 189  170 169 190  169 171 191  169 190 191  171 172 192  171 191 192  172 173 193  172 192 193  173 174 194  173 193 194  174 175 195  174 194 195  175 176 196  175 195 196  176 177 197  176 196 197  177 178 198  177 197 198  178 179 199  178 198 199  179 180 200  179 199 200  180 181 201  180 200 201  181 182 202  181 201 202  182 183 203  182 202 203  183 184 204  183 203 204  184 185 205  184 204 205  185 186 206  185 205 206  186 187 207  186 206 207  187 188 208  187 207 208  188 189 209  188 208 209  189 209 210  190 191 211  191 192 212  191 211 212  192 193 213  192 212 213  193 194 214  193 213 214  194 195 215  194 214 215  195 196 216  195 215 216  196 197 217  196 216 217  197 198 218  197 217 218  198 199 219  198 218 219  199 200 220  199 219 220  200 201 221  200 220 221  201 202 222  201 221 222  202 203 223  202 222 223  203 204 224  203 223 224  204 205 225  204 224 225  205 206 226  205 225 226  206 207 227  206 226 227  207 208 228  207 227 228  208 209 229  208 228 229  209 210 230  209 229 230  210 230 231  211 212 232  212 213 233  212 232 233  213 214 234  213 233 234  214 215 235  214 234 235  215 216 236  215 235 236  216 217 237  216 236 237  217 218 238  217 237 238  218 219 239  218 238 239  219 220 240  219 239 240  220 221 241  220 240 241  221 222 242  221 241 242  222 223 243  222 242 243  223 224 244  223 243 244  224 225 245  224 244 245  225 226 246  225 245 246  226 227 247  226 246 247  227 228 248  227 247 248  228 229 249  228 248 249  229 230 250  229 249 250  230 231 251  230 250 251  231 251 252  236 237 253  237 238 254  237 253 254  238 239 255  238 254 255  239 240 256  239 255 256  240 241 257  240 256 257  241 242 258  241 257 258  242 243 259  242 258 259  243 244 260  243 259 260  244 245 261  244 260 261  245 246 262  245 261 262  246 247 263  246 262 263  247 248 264  247 263 264  248 249 265  248 264 265  249 250 266  249 265 266  250 251 267  250 266 267  251 252 268  251 267 268  252 268 269  262 263 270  263 264 271  263 270 271  264 265 272  264 271 272  265 266 273  265 272 273  266 267 274  266 273 274  267 268 275  267 274 275  268 269 276  268 275 276  272 273 277  273 274 278  273 277 278  274 275 279  274 278 279  275 276 280  275 279 280  276 280 281  </DataArray>
<DataArray  type="UInt32"  Name="offsets"  format="ascii">3 6 9 12 15 18 21 24 27 30 33 36 39 42 45 48 51 54 57 60 63 66 69 72 75 78 81 84 87 90 93 96 99 102 105 108 111 114 117 120 123 126 129 132 135 138 141 144 147 150 153 156 159 162 165 168 171 174 177 180 183 186 189 192 195 198 201 204 207 210 213 216 219 222 225 228 231 234 237 240 243 246 249 252 255 258 261 264 267 270 273 276 279 282 285 288 291 294 297 300 303 306 309 312 315 318 321 324 327 330 333 336 339 342 345 348 351 354 357 360 363 366 369 372 375 378 381 384 387 390 393 396 399 402 405 408 411 414 417 420 423 426 429 432 435 438 441 444 447 450 453 456 459 462 465 468 471 474 477 480 483 486 489 492 495 498 501 504 507 510 513 516 519 522 525 528 531 534 537 540 543 546 549 552 555 558 561 564 567 570 573 576 579 582 585 588 591 594 597 600 603 606 609 612 615 618 621 624 627 630 633 636 639 642 645 648 651 654 657 660 663 666 669 672 675 678 681 684 687 690 693 696 699 702 705 708 711 714 717 720 723 726 729 732 735 738 741 744 747 750 753 756 759 762 765 768 771 774 777 780 783 786 789 792 795 798 801 804 807 810 813 816 819 822 825 828 831 834 837 840 843 846 849 852 855 858 861 864 867 870 873 876 879 882 885 888 891 894 897 900 903 906 909 912 915 918 921 924 927 930 933 936 939 942 945 948 951 954 957 960 963 966 969 972 975 978 981 984 987 990 993 996 999 1002 1005 1008 1011 1014 1017 1020 1023 1026 1029 1032 1035 1038 1041 1044 1047 1050 1053 1056 1059 1062 1065 1068 1071 1074 1077 1080 1083 1086 1089 1092 1095 1098 1101 1104 1107 1110 1113 1116 1119 1122 1125 1128 1131 1134 1137 1140 1143 1146 1149 1152 1155 1158 1161 1164 1167 1170 1173 1176 1179 1182 1185 1188 1191 1194 1197 1200 1203 1206 1209 1212 1215 1218 1221 1224 1227 1230 1233 1236 1239 1242 1245 1248 1251 1254 1257 1260 1263 1266 1269 1272 1275 1278 1281 1284 1287 1290 1293 1296 1299 1302 1305 1308 1311 1314 1317 1320 1323 1326 1329 1332 1335 1338 1341 1344 1347 1350 1353 1356 1359 1362 1365 1368 1371 1374 1377 1380 1383 1386 1389 1392 1395 1398 1401 1404 1407 1410 1413 1416 1419 1422 1425 1428 1431 1434 1437 1440 1443 1446 1449 1452 1455 1458 1461 1464 1467 1470 1473 1476 1479 1482 1485 1488 1491 1494 </DataArray>
<DataArray  type="UInt8"  Name="types"  format="ascii">5 5 5 5 5 5 5 5 5 5 5 5 5 5 5 5 5 5 5 5 5 5 5 5 5 5 5 5 5 5 5 5 5 5 5 5 5 5 5 5 5 5 5 5 5 5 5 5 5 5 5 5 5 5 5 5 5 5 5 5 5 5 5 5 5 5 5 5 5 5 5 5 5 5 5 5 5 5 5 5 5 5 5 5 5 5 5 5 5 5 5 5 5 5 5 5 5 5 5 5 5 5 5 5 5 5 5 5 5 5 5 5 5 5 5 5 5 5 5 5 5 5 5 5 5 5 5 5 5 5 5 5 5 5 5 5 5 5 5 5 5 5 5 5 5 5 5 5 5 5 5 5 5 5 5 5 5 5 5 5 5 5 5 5 5 5 5 5 5 5 5 5 5 5 5 5 5 5 5 5 5 5 5 5 5 5 5 5 5 5 5 5 5 5 5 5 5 5 5 5 5 5 5 5 5 5 5 5 5 5 5 5 5 5 5 5 5 5 5 5 5 5 5 5 5 5 5 5 5 5 5 5 5 5 5 5 5 5 5 5 5 5 5 5 5 5 5 5 5 5 5 5 5 5 5 5 5 5 5 5 5 5 5 5 5 5 5 5 5 5 5 5 5 5 5 5 5 5 5 5 5 5 5 5 5 5 5 5 5 5 5 5 5 5 5 5 5 5 5 5 5 5 5 5 5 5 5 5 5 5 5 5 5 5 5 5 5 5 5 5 5 5 5 5 5 5 5 5 5 5 5 5 5 5 5 5 5 5 5 5 5 5 5 5 5 5 5 5 5 5 5 5 5 5 5 5 5 5 5 5 5 5 5 5 5 5 5 5 5 5 5 5 5 5 5 5 5 5 5 5 5 5 5 5 5 5 5 5 5 5 5 5 5 5 5 5 5 5 5 5 5 5 5 5 5 5 5 5 5 5 5 5 5 5 5 5 5 5 5 5 5 5 5 5 5 5 5 5 5 5 5 5 5 5 5 5 5 5 5 5 5 5 5 5 5 5 5 5 5 5 5 5 5 5 5 5 5 5 5 5 5 5 5 5 5 5 5 5 5 5 5 5 5 5 5 5 5 5 5 5 5 5 5 5 5 5 5 5 5 5 5 5 5 5 5 5 5 5 </DataArray>
</Cells>
<PointData  Scalars="f_10"> 
<DataArray  type="Float64"  Name="f_10"  format="ascii">0.0000000000000000e+00  4.2051584054798335e-02  3.7607962989688416e-02  0.0000000000000000e+00  8.3284250597048956e-02  7.4506436938078360e-02  1.2289671023860085e-01  1.1000087241438654e-01  1.6012254503770995e-01  1.4342627548613104e-01  1.9424670043624978e-01  1.7416119344570954e-01  2.2462089411692862e-01  2.0164079713601094e-01  2.5067765826245653e-01  2.2536883270240049e-01  2.7194278746193884e-01  2.4492826913087629e-01  2.8804601948166636e-01  2.5999052056555638e-01  2.9872981952877525e-01  2.7032316270460460e-01  3.0385615900007873e-01  2.7579607740565437e-01  3.3873830961465609e-02  0.0000000000000000e+00  6.7132661733496884e-02  9.9174066930326349e-02  1.2942049083387031e-01  1.5733100008593526e-01  1.8241226654012554e-01  2.0422860198100926e-01  2.2241092614292743e-01  2.3666461127593055e-01  2.4677619691899955e-01  2.5261898882979544e-01  2.5415752592213192e-01  3.0754699104984535e-02  0.0000000000000000e+00  6.0976312033150161e-02  9.0142242481158499e-02  1.1775061997903628e-01  1.4333004696139637e-01  1.6644865997666478e-01  1.8672236527333474e-01  2.0382218341398825e-01  2.1748072242744912e-01  2.2749787851557038e-01  2.3374590903211254e-01  2.3617399513937837e-01  2.8168653360912753e-02  0.0000000000000000e+00  5.5875644554567609e-02  8.2667970041121613e-02  1.0810969652875352e-01  1.3178989846670489e-01  1.5332993568816594e-01  1.7238995277162208e-01  1.8867457839948537e-01  2.0193792805118074e-01  2.1198815139721133e-01  2.1869187496818301e-01  2.2197889764344997e-01  2.2184731520074641e-01  2.6044269571251090e-02  0.0000000000000000e+00  5.1689641929033518e-02  7.6544293489040335e-02  1.0023028734038346e-01  1.2238988380110893e-01  1.4269114734101607e-01  1.6083272333363527e-01  1.7654778102509613e-01  1.8960730423254604e-01  1.9982315290231017e-01  2.0705156114716050e-01  2.1119784986679424e-01  2.1222292853336375e-01  2.1015150249539913e-01  2.4318782356546855e-02  0.0000000000000000e+00  4.8294357538635729e-02  7.1589265308378447e-02  9.3877244655236378e-02  1.1484810928921188e-01  1.3421179356718652e-01  1.5170138580653877e-01  1.6707510975542522e-01  1.8011747942576548e-01  1.9064026326533945e-01  1.9848438949150068e-01  2.0352428393257799e-01  2.0567598032534776e-01  2.0490933662809516e-01  2.0126285365820912e-01  2.2936500577420936e-02  0.0000000000000000e+00  4.5579733579702020e-02  6.7641140106964953e-02  8.8841232486315563e-02  1.0891326215934807e-01  1.2760584168678082e-01  1.4468420692167452e-01  1.5992994691483639e-01  1.7313938422198660e-01  1.8412145691502518e-01  1.9269689511467245e-01  1.9870134468763348e-01  2.0199515912602747e-01  2.0248110614049855e-01  2.0012809487162184e-01  1.9499530024159048e-01  2.1847482074185832e-02  0.0000000000000000e+00  4.3446918830537626e-02  6.4554266103409086e-02  8.4933074631845934e-02  1.0435723878481594e-01  1.2261239445068069e-01  1.3949541603301380e-01  1.5481155017879131e-01  1.6836916189371842e-01  1.7997310468528274e-01  1.8941939704790944e-01  1.9649565690448217e-01  2.0099234590189938e-01  2.0272781468027440e-01  2.0158495159189438e-01  1.9755065492445087e-01  1.9074504589963009e-01  2.1006499238103073e-02  0.0000000000000000e+00  4.1806154794948133e-02  6.2195789431531659e-02  8.1979092816788723e-02  1.0096881551809656e-01  1.1898723544864807e-01  1.3586397599944089e-01  1.5143020065322965e-01  1.6550869043914723e-01  1.7790083404586632e-01  1.8837433866557815e-01  1.9665873978313550e-01  2.0245741891762620e-01  2.0548210518147417e-01  2.0550760728371645e-01  2.0243346960887545e-01  1.9633159834030242e-01  1.8746063974300900e-01  2.0372340414130680e-02  0.0000000000000000e+00  4.0575332630830470e-02  6.0443355557854107e-02  7.9817735937649764e-02  9.8548819496301759e-02  1.1649589959860962e-01  1.3352356012427100e-01  1.4949266794587349e-01  1.6424469675949555e-01  1.7758018668930639e-01  1.8923647555683870e-01  1.9887535812819115e-01  2.0609467478364385e-01  2.1047440777514320e-01  2.1165542118857794e-01  2.0943143862094263e-01  2.0382217277669795e-01  1.9509759221023781e-01  1.8374169284993908e-01  1.9907493388156228e-02  0.0000000000000000e+00  3.9679333406291525e-02  5.9184029944895696e-02  7.8297904728053244e-02  9.6907495363867710e-02  1.1490940899846115e-01  1.3220551658034055e-01  1.4869064540788632e-01  1.6423022625950440e-01  1.7862815117675485e-01  1.9159142298558024e-01  2.0270674837266270e-01  2.1145007099785226e-01  2.1724600535275840e-01  2.1957631372666564e-01  2.1811040754920788e-01  2.1281129014361300e-01  2.0397263348833722e-01  1.9216956014489300e-01  1.7814285753471984e-01  1.9578238567058041e-02  3.9050231621000277e-02  5.8314627411860907e-02  7.7279377013002040e-02  9.5864870872800781e-02  1.1400416994477454e-01  1.3163745947412270e-01  1.4869657802420447e-01  1.6507550346531813e-01  1.8058617301392940e-01  1.9490765184033029e-01  2.0754893577775879e-01  2.1785471801028172e-01  2.2507897431461393e-01  2.2852718122481117e-01  2.2773149583088084e-01  2.2259520531836799e-01  2.1344501909184405e-01  2.0096669833954686e-01  1.8605112954769343e-01  1.6961333103003154e-01  3.8628351475764586e-02  5.7743498360900626e-02  7.6635549640595310e-02  9.5254712958934146e-02  1.1356736907467793e-01  1.3155018967439724e-01  1.4917190355214005e-01  1.6635685004696976e-01  1.8292859155683064e-01  1.9854286998278417e-01  2.1263540758434166e-01  2.2442265249584850e-01  2.3298888522547645e-01  2.3746267635945206e-01  2.3723827570859807e-01  2.3216034237268071e-01  2.2259242274930030e-01  2.0933699811092513e-01  1.9344185895044547e-01  1.7597344462524739e-01  1.5783789799119533e-01  5.7393560702814359e-02  7.6258287336414168e-02  9.4931996002495050e-02  1.1340819063927909e-01  1.3169416714791754e-01  1.4979066248380132e-01  1.6764959159323847e-01  1.8510702986787655e-01  2.0180169147757188e-01  2.1710893362592151e-01  2.3013624156047999e-01  2.3982148016024932e-01  2.4513918828977332e-01  2.4536294935449054e-01  2.4028627919701426e-01  2.3030598269152627e-01  2.1632865477100252e-01  1.9954177705508386e-01  1.8114633216228820e-01  1.6214782990011381e-01  1.4325628519263728e-01  1.5027623773657808e-01  1.6858265190516966e-01  1.8662882024974700e-01  2.0404367783694666e-01  2.2016328643616478e-01  2.3402214238815899e-01  2.4445853441444107e-01  2.5034108784444009e-01  2.5085952822811880e-01  2.4577105242778927e-01  2.3549461493418031e-01  2.2100851249625003e-01  2.0359714586477543e-01  1.8455520470594680e-01  1.6495757427136631e-01  1.4555119145142514e-01  1.2676115881559391e-01  2.3734812217958540e-01  2.2268444789759972e-01  2.0505041536736734e-01  1.8577502508351609e-01  1.6595929923628366e-01  1.4636468219310597e-01  1.2742009074629596e-01  1.8464408914973723e-01  1.6503563203673488e-01  1.4561556807232962e-01  1.2681190845017218e-01  1.0880295309539702e-01  </DataArray> 
</PointData> 
</Piece>
</UnstructuredGrid>
</VTKFile>