<?xml version="1.0"?>
<VTKFile type="UnstructuredGrid"  version="0.1"  >
<UnstructuredGrid>
<Piece  NumberOfPoints="561" NumberOfCells="1024">
<Points>
<DataArray  type="Float64"  NumberOfComponents="3"  format="ascii">0 0.34375 0  0 0.375 0  0.03125 0.375 0  0.03125 0.40625 0  0 0.40625 0  0.0625 0.40625 0  0.03125 0.4375 0  0 0.4375 0  0.0625 0.4375 0  0.09375 0.4375 0  0.03125 0.46875 0  0 0.46875 0  0.0625 0.46875 0  0.09375 0.46875 0  0.125 0.4375 0  0.125 0.46875 0  0.15625 0.4375 0  0.15625 0.46875 0  0.1875 0.4375 0  0.1875 0.46875 0  0.21875 0.4375 0  0.21875 0.46875 0  0.25 0.46875 0  0.03125 0.5 0  0 0.5 0  0.0625 0.5 0  0.09375 0.5 0  0.125 0.5 0  0.15625 0.5 0  0.1875 0.5 0  0.21875 0.5 0  0.25 0.5 0  0.28125 0.46875 0  0.28125 0.5 0  0.3125 0.46875 0  0.3125 0.5 0  0.34375 0.46875 0  0.34375 0.5 0  0.375 0.46875 0  0.375 0.5 0  0.40625 0.5 0  0.03125 0.53125 0  0 0.53125 0  0.0625 0.53125 0  0.09375 0.53125 0  0.125 0.53125 0  0.15625 0.53125 0  0.1875 0.53125 0  0.21875 0.53125 0  0.25 0.53125 0  0.28125 0.53125 0  0.3125 0.53125 0  0.34375 0.53125 0  0.375 0.53125 0  0.40625 0.53125 0  0.4375 0.5 0  0.4375 0.53125 0  0.46875 0.5 0  0.46875 0.53125 0  0.5 0.53125 0  0.03125 0.5625 0  0 0.5625 0  0.0625 0.5625 0  0.09375 0.5625 0  0.125 0.5625 0  0.15625 0.5625 0  0.1875 0.5625 0  0.21875 0.5625 0  0.25 0.5625 0  0.28125 0.5625 0  0.3125 0.5625 0  0.34375 0.5625 0  0.375 0.5625 0  0.40625 0.5625 0  0.4375 0.5625 0  0.46875 0.5625 0  0.5 0.5625 0  0.53125 0.53125 0  0.53125 0.5625 0  0.5625 0.53125 0  0.5625 0.5625 0  0.59375 0.53125 0  0.59375 0.5625 0  0.625 0.53125 0  0.625 0.5625 0  0.65625 0.53125 0  0.65625 0.5625 0  0.6875 0.53125 0  0.6875 0.5625 0  0.71875 0.53125 0  0.71875 0.5625 0  0.75 0.53125 0  0.75 0.5625 0  0.78125 0.53125 0  0.78125 0.5625 0  0.8125 0.53125 0  0.8125 0.5625 0  0.84375 0.53125 0  0.84375 0.5625 0  0.875 0.53125 0  0.875 0.5625 0  0.90625 0.5625 0  0.03125 0.59375 0  0 0.59375 0  0.0625 0.59375 0  0.09375 0.59375 0  0.125 0.59375 0  0.15625 0.59375 0  0.1875 0.59375 0  0.21875 0.59375 0  0.25 0.59375 0  0.28125 0.59375 0  0.3125 0.59375 0  0.34375 0.59375 0  0.375 0.59375 0  0.40625 0.59375 0  0.4375 0.59375 0  0.46875 0.59375 0  0.5 0.59375 0  0.53125 0.59375 0  0.5625 0.59375 0  0.59375 0.59375 0  0.625 0.59375 0  0.65625 0.59375 0  0.6875 0.59375 0  0.71875 0.59375 0  0.75 0.59375 0  0.78125 0.59375 0  0.8125 0.59375 0  0.84375 0.59375 0  0.875 0.59375 0  0.90625 0.59375 0  0.9375 0.59375 0  0.03125 0.625 0  0 0.625 0  0.0625 0.625 0  0.09375 0.625 0  0.125 0.625 0  0.15625 0.625 0  0.1875 0.625 0  0.21875 0.625 0  0.25 0.625 0  0.28125 0.625 0  0.3125 0.625 0  0.34375 0.625 0  0.375 0.625 0  0.40625 0.625 0  0.4375 0.625 0  0.46875 0.625 0  0.5 0.625 0  0.53125 0.625 0  0.5625 0.625 0  0.59375 0.625 0  0.625 0.625 0  0.65625 0.625 0  0.6875 0.625 0  0.71875 0.625 0  0.75 0.625 0  0.78125 0.625 0  0.8125 0.625 0  0.84375 0.625 0  0.875 0.625 0  0.90625 0.625 0  0.9375 0.625 0  0.96875 0.625 0  0.03125 0.65625 0  0 0.65625 0  0.0625 0.65625 0  0.09375 0.65625 0  0.125 0.65625 0  0.15625 0.65625 0  0.1875 0.65625 0  0.21875 0.65625 0  0.25 0.65625 0  0.28125 0.65625 0  0.3125 0.65625 0  0.34375 0.65625 0  0.375 0.65625 0  0.40625 0.65625 0  0.4375 0.65625 0  0.46875 0.65625 0  0.5 0.65625 0  0.53125 0.65625 0  0.5625 0.65625 0  0.59375 0.65625 0  0.625 0.65625 0  0.65625 0.65625 0  0.6875 0.65625 0  0.71875 0.65625 0  0.75 0.65625 0  0.78125 0.65625 0  0.8125 0.65625 0  0.84375 0.65625 0  0.875 0.65625 0  0.90625 0.65625 0  0.9375 0.65625 0  0.96875 0.65625 0  1 0.65625 0  0.03125 0.6875 0  0 0.6875 0  0.0625 0.6875 0  0.09375 0.6875 0  0.125 0.6875 0  0.15625 0.6875 0  0.1875 0.6875 0  0.21875 0.6875 0  0.25 0.6875 0  0.28125 0.6875 0  0.3125 0.6875 0  0.34375 0.6875 0  0.375 0.6875 0  0.40625 0.6875 0  0.4375 0.6875 0  0.46875 0.6875 0  0.5 0.6875 0  0.53125 0.6875 0  0.5625 0.6875 0  0.59375 0.6875 0  0.625 0.6875 0  0.65625 0.6875 0  0.6875 0.6875 0  0.71875 0.6875 0  0.75 0.6875 0  0.78125 0.6875 0  0.8125 0.6875 0  0.84375 0.6875 0  0.875 0.6875 0  0.90625 0.6875 0  0.9375 0.6875 0  0.96875 0.6875 0  1 0.6875 0  0.03125 0.71875 0  0 0.71875 0  0.0625 0.71875 0  0.09375 0.71875 0  0.125 0.71875 0  0.15625 0.71875 0  0.1875 0.71875 0  0.21875 0.71875 0  0.25 0.71875 0  0.28125 0.71875 0  0.3125 0.71875 0  0.34375 0.71875 0  0.375 0.71875 0  0.40625 0.71875 0  0.4375 0.71875 0  0.46875 0.71875 0  0.5 0.71875 0  0.53125 0.71875 0  0.5625 0.71875 0  0.59375 0.71875 0  0.625 0.71875 0  0.65625 0.71875 0  0.6875 0.71875 0  0.71875 0.71875 0  0.75 0.71875 0  0.78125 0.71875 0  0.8125 0.71875 0  0.84375 0.71875 0  0.875 0.71875 0  0.90625 0.71875 0  0.9375 0.71875 0  0.96875 0.71875 0  1 0.71875 0  0.03125 0.75 0  0 0.75 0  0.0625 0.75 0  0.09375 0.75 0  0.125 0.75 0  0.15625 0.75 0  0.1875 0.75 0  0.21875 0.75 0  0.25 0.75 0  0.28125 0.75 0  0.3125 0.75 0  0.34375 0.75 0  0.375 0.75 0  0.40625 0.75 0  0.4375 0.75 0  0.46875 0.75 0  0.5 0.75 0  0.53125 0.75 0  0.5625 0.75 0  0.59375 0.75 0  0.625 0.75 0  0.65625 0.75 0  0.6875 0.75 0  0.71875 0.75 0  0.75 0.75 0  0.78125 0.75 0  0.8125 0.75 0  0.84375 0.75 0  0.875 0.75 0  0.90625 0.75 0  0.9375 0.75 0  0.96875 0.75 0  1 0.75 0  0.03125 0.78125 0  0 0.78125 0  0.0625 0.78125 0  0.09375 0.78125 0  0.125 0.78125 0  0.15625 0.78125 0  0.1875 0.78125 0  0.21875 0.78125 0  0.25 0.78125 0  0.28125 0.78125 0  0.3125 0.78125 0  0.34375 0.78125 0  0.375 0.78125 0  0.40625 0.78125 0  0.4375 0.78125 0  0.46875 0.78125 0  0.5 0.78125 0  0.53125 0.78125 0  0.5625 0.78125 0  0.59375 0.78125 0  0.625 0.78125 0  0.65625 0.78125 0  0.6875 0.78125 0  0.71875 0.78125 0  0.75 0.78125 0  0.78125 0.78125 0  0.8125 0.78125 0  0.84375 0.78125 0  0.875 0.78125 0  0.90625 0.78125 0  0.9375 0.78125 0  0.96875 0.78125 0  1 0.78125 0  0.03125 0.8125 0  0 0.8125 0  0.0625 0.8125 0  0.09375 0.8125 0  0.125 0.8125 0  0.15625 0.8125 0  0.1875 0.8125 0  0.21875 0.8125 0  0.25 0.8125 0  0.28125 0.8125 0  0.3125 0.8125 0  0.34375 0.8125 0  0.375 0.8125 0  0.40625 0.8125 0  0.4375 0.8125 0  0.46875 0.8125 0  0.5 0.8125 0  0.53125 0.8125 0  0.5625 0.8125 0  0.59375 0.8125 0  0.625 0.8125 0  0.65625 0.8125 0  0.6875 0.8125 0  0.71875 0.8125 0  0.75 0.8125 0  0.78125 0.8125 0  0.8125 0.8125 0  0.84375 0.8125 0  0.875 0.8125 0  0.90625 0.8125 0  0.9375 0.8125 0  0.96875 0.8125 0  1 0.8125 0  0.03125 0.84375 0  0 0.84375 0  0.0625 0.84375 0  0.09375 0.84375 0  0.125 0.84375 0  0.15625 0.84375 0  0.1875 0.84375 0  0.21875 0.84375 0  0.25 0.84375 0  0.28125 0.84375 0  0.3125 0.84375 0  0.34375 0.84375 0  0.375 0.84375 0  0.40625 0.84375 0  0.4375 0.84375 0  0.46875 0.84375 0  0.5 0.84375 0  0.53125 0.84375 0  0.5625 0.84375 0  0.59375 0.84375 0  0.625 0.84375 0  0.65625 0.84375 0  0.6875 0.84375 0  0.71875 0.84375 0  0.75 0.84375 0  0.78125 0.84375 0  0.8125 0.84375 0  0.84375 0.84375 0  0.875 0.84375 0  0.90625 0.84375 0  0.9375 0.84375 0  0.96875 0.84375 0  1 0.84375 0  0.03125 0.875 0  0 0.875 0  0.0625 0.875 0  0.09375 0.875 0  0.125 0.875 0  0.15625 0.875 0  0.1875 0.875 0  0.21875 0.875 0  0.25 0.875 0  0.28125 0.875 0  0.3125 0.875 0  0.34375 0.875 0  0.375 0.875 0  0.40625 0.875 0  0.4375 0.875 0  0.46875 0.875 0  0.5 0.875 0  0.53125 0.875 0  0.5625 0.875 0  0.59375 0.875 0  0.625 0.875 0  0.65625 0.875 0  0.6875 0.875 0  0.71875 0.875 0  0.75 0.875 0  0.78125 0.875 0  0.8125 0.875 0  0.84375 0.875 0  0.875 0.875 0  0.90625 0.875 0  0.9375 0.875 0  0.96875 0.875 0  1 0.875 0  0.03125 0.90625 0  0 0.90625 0  0.0625 0.90625 0  0.09375 0.90625 0  0.125 0.90625 0  0.15625 0.90625 0  0.1875 0.90625 0  0.21875 0.90625 0  0.25 0.90625 0  0.28125 0.90625 0  0.3125 0.90625 0  0.34375 0.90625 0  0.375 0.90625 0  0.40625 0.90625 0  0.4375 0.90625 0  0.46875 0.90625 0  0.5 0.90625 0  0.53125 0.90625 0  0.5625 0.90625 0  0.59375 0.90625 0  0.625 0.90625 0  0.65625 0.90625 0  0.6875 0.90625 0  0.71875 0.90625 0  0.75 0.90625 0  0.78125 0.90625 0  0.8125 0.90625 0  0.84375 0.90625 0  0.875 0.90625 0  0.90625 0.90625 0  0.9375 0.90625 0  0.96875 0.90625 0  1 0.90625 0  0.03125 0.9375 0  0 0.9375 0  0.0625 0.9375 0  0.09375 0.9375 0  0.125 0.9375 0  0.15625 0.9375 0  0.1875 0.9375 0  0.21875 0.9375 0  0.25 0.9375 0  0.28125 0.9375 0  0.3125 0.9375 0  0.34375 0.9375 0  0.375 0.9375 0  0.40625 0.9375 0  0.4375 0.9375 0  0.46875 0.9375 0  0.5 0.9375 0  0.53125 0.9375 0  0.5625 0.9375 0  0.59375 0.9375 0  0.625 0.9375 0  0.65625 0.9375 0  0.6875 0.9375 0  0.71875 0.9375 0  0.75 0.9375 0  0.78125 0.9375 0  0.8125 0.9375 0  0.84375 0.9375 0  0.875 0.9375 0  0.90625 0.9375 0  0.9375 0.9375 0  0.96875 0.9375 0  1 0.9375 0  0.03125 0.96875 0  0 0.96875 0  0.0625 0.96875 0  0.09375 0.96875 0  0.125 0.96875 0  0.15625 0.96875 0  0.1875 0.96875 0  0.21875 0.96875 0  0.25 0.96875 0  0.28125 0.96875 0  0.3125 0.96875 0  0.34375 0.96875 0  0.375 0.96875 0  0.40625 0.96875 0  0.4375 0.96875 0  0.46875 0.96875 0  0.5 0.96875 0  0.53125 0.96875 0  0.5625 0.96875 0  0.59375 0.96875 0  0.625 0.96875 0  0.65625 0.96875 0  0.6875 0.96875 0  0.71875 0.96875 0  0.75 0.96875 0  0.78125 0.96875 0  0.8125 0.96875 0  0.84375 0.96875 0  0.875 0.96875 0  0.90625 0.96875 0  0.9375 0.96875 0  0.96875 0.96875 0  1 0.96875 0  0.03125 1 0  0 1 0  0.0625 1 0  0.09375 1 0  0.125 1 0  0.15625 1 0  0.1875 1 0  0.21875 1 0  0.25 1 0  0.28125 1 0  0.3125 1 0  0.34375 1 0  0.375 1 0  0.40625 1 0  0.4375 1 0  0.46875 1 0  0.5 1 0  0.53125 1 0  0.5625 1 0  0.59375 1 0  0.625 1 0  0.65625 1 0  0.6875 1 0  0.71875 1 0  0.75 1 0  0.78125 1 0  0.8125 1 0  0.84375 1 0  0.875 1 0  0.90625 1 0  0.9375 1 0  0.96875 1 0  1 1 0  </DataArray>
</Points>
<Cells>
[...]
<PointData  Scalars="f_10"> 
<DataArray  type="Float64"  Name="f_10"  format="ascii">0.0000000000000000e+00  0.0000000000000000e+00  1.9578238567057996e-02  1.9355135926813656e-02  0.0000000000000000e+00  3.8628351475764468e-02  1.9213824335634778e-02  0.0000000000000000e+00  3.8364019222488319e-02  5.7393560702814143e-02  1.9135979447101593e-02  0.0000000000000000e+00  3.8219684671987941e-02  5.7206038893740672e-02  7.6258287336413863e-02  7.6064072348842521e-02  9.4931996002494759e-02  9.4782743042289744e-02  1.1340819063927880e-01  1.1337332643909948e-01  1.3169416714791721e-01  1.3186360653821674e-01  1.5027623773657758e-01  1.9110222789149176e-02  0.0000000000000000e+00  3.8171951321631439e-02  5.7144092898084205e-02  7.6000094276957558e-02  9.4734023827424116e-02  1.1336321048247447e-01  1.3192252697497772e-01  1.5044239541160964e-01  1.6858265190516916e-01  1.6890147647707082e-01  1.8662882024974645e-01  1.8715000404115037e-01  2.0404367783694616e-01  2.0481467359299518e-01  2.2016328643616431e-01  2.2121912722599943e-01  2.3537333215240022e-01  1.9132767343320860e-02  0.0000000000000000e+00  3.8213026210994760e-02  5.7195434484638243e-02  7.6048698048786917e-02  9.4761375261388836e-02  1.1334428788034349e-01  1.3182481487287559e-01  1.5022548810199923e-01  1.6851827528426458e-01  1.8655076248437766e-01  2.0395479339315545e-01  2.2007030319989968e-01  2.3393555225410051e-01  2.4608086782445429e-01  2.4439087885112024e-01  2.5217219988539830e-01  2.5030382058694456e-01  2.5085952822811813e-01  1.9207638396404981e-02  0.0000000000000000e+00  3.8351217153569525e-02  5.7373228218503609e-02  7.6228924598565062e-02  9.4891390773941639e-02  1.1335333438860819e-01  1.3162135984887613e-01  1.4969603763611034e-01  1.6753030874061350e-01  1.8496320542724448e-01  2.0163869285350827e-01  2.1693906609188993e-01  2.2997850829553979e-01  2.3969848479741160e-01  2.4507151742590108e-01  2.4536294935448974e-01  2.4580831968528338e-01  2.4035395006088489e-01  2.3556227049749973e-01  2.3042897805436252e-01  2.2109510263030710e-01  2.1648638803594134e-01  2.0369012910103926e-01  1.9971164458911406e-01  1.8464408914973673e-01  1.8130933078635045e-01  1.6503563203673446e-01  1.6229165434074466e-01  1.4561556807232928e-01  1.4337556804526122e-01  1.2681190845017196e-01  1.2498338727915198e-01  1.0880295309539686e-01  1.0730578812012830e-01  9.1607186786493780e-02  9.0381410289760419e-02  7.5157069891168521e-02  7.4163218319270169e-02  5.9346058638350060e-02  5.8561545459425553e-02  4.3466805720017501e-02  1.9346413284277317e-02  0.0000000000000000e+00  3.8610346473927588e-02  5.7715028231274543e-02  7.6594691306436813e-02  9.5198662242619567e-02  1.1349236408282430e-01  1.3145167981720907e-01  1.4904524641461628e-01  1.6619882980699488e-01  1.8273982764751037e-01  1.9833063413898233e-01  2.1241564354678827e-01  2.2421958130853206e-01  2.3283107550247739e-01  2.3737602502318839e-01  2.3723827570859723e-01  2.3224699370894267e-01  2.2275023247229767e-01  2.0954006929823993e-01  1.9366162298799730e-01  1.7618568046904787e-01  1.5802666190051434e-01  1.3985049041968231e-01  1.2206953459571533e-01  1.0489138256022841e-01  8.8383544040223527e-02  7.2528797603663486e-02  5.7262128509155463e-02  4.2491203985004299e-02  2.8106409642112806e-02  1.9567547106720967e-02  0.0000000000000000e+00  3.9028237511365201e-02  5.8280049336012579e-02  7.7230157541802347e-02  9.5798058745368980e-02  1.1391588458100797e-01  1.3152312416795839e-01  1.4855170298965581e-01  1.6489729976036593e-01  1.8037603905007960e-01  1.9467401414109348e-01  2.0730920618491697e-01  2.1763474025591742e-01  2.2490886215055267e-01  2.2843404493833572e-01  2.2773149583088001e-01  2.2268834160484177e-01  2.1361513125590362e-01  2.0118667609390969e-01  1.8629085914053387e-01  1.6984696872926705e-01  1.5265737905681984e-01  1.3532838711688669e-01  1.1825954414461129e-01  1.0167680403611568e-01  8.5680372625915047e-02  7.0287233300837387e-02  5.5460644095398227e-02  4.1127567856164116e-02  2.7188466585186238e-02  1.3523795482007052e-02  1.9895452053063405e-02  0.0000000000000000e+00  3.9654660989360990e-02  5.9145502584678579e-02  7.8243588997892174e-02  9.6834678138381161e-02  1.1481462118108116e-01  1.3208481740217032e-01  1.4854040834863239e-01  1.6404865330661064e-01  1.7841751785329663e-01  1.9136056080083921e-01  2.0247265445983856e-01  2.1123722491683597e-01  2.1708247143365633e-01  2.1948712291426825e-01  2.1811040754920702e-01  2.1290048095600875e-01  2.0413616740743756e-01  1.9238240622590774e-01  1.7837695144754256e-01  1.6289275064939798e-01  1.4662270446412745e-01  1.3011394832976897e-01  1.1375265063237669e-01  9.7782533140933950e-02  8.2336337767447962e-02  6.7465390667748204e-02  5.3161091316737956e-02  3.9368584051422718e-02  2.5995717737434944e-02  1.2920601878777504e-02  0.0000000000000000e+00  2.0359545213018630e-02  0.0000000000000000e+00  4.0549229581799157e-02  6.0402894116429871e-02  7.9761290448340683e-02  9.8474173864716061e-02  1.1640032887077238e-01  1.3340414162039393e-01  1.4934700329418735e-01  1.6407220015496726e-01  1.7738390470066129e-01  1.8902501189901261e-01  1.9866400954720642e-01  2.0590467515090249e-01  2.1032960339020737e-01  2.1157682629403285e-01  2.0943143862094180e-01  2.0390076767124138e-01  1.9524239659517187e-01  1.8393169248267874e-01  1.7058058417306207e-01  1.5583771296092033e-01  1.4030214406182417e-01  1.2447014287712246e-01  1.0871698409257016e-01  9.3303347811174511e-02  7.8392500128942430e-02  6.4067922926115600e-02  5.0346765799584935e-02  3.7189060619830974e-02  2.4504972394069881e-02  1.2162833130523371e-02  0.0000000000000000e+00  2.0993467223310441e-02  0.0000000000000000e+00  4.1779688415200703e-02  6.2155077117511164e-02  8.1922912011860652e-02  1.0089556457862248e-01  1.1889505690144889e-01  1.3575106590797639e-01  1.5129542421215278e-01  1.6535259176122374e-01  1.7772698045092031e-01  1.8819065899234769e-01  1.9647819988101989e-01  2.0229726058261982e-01  2.0536121069926991e-01  2.0544236845901803e-01  2.0243346960887459e-01  1.9639683716499909e-01  1.8758153422521154e-01  1.7639993962081085e-01  1.6337118578462287e-01  1.4905077720069831e-01  1.3396742672685638e-01  1.1858047932017587e-01  1.0326022621099548e-01  8.8285193509431870e-02  7.3847817684275327e-02  6.0061703541203375e-02  4.6967217184054076e-02  3.4535385947737467e-02  2.2672131738392835e-02  1.1225721849813155e-02  0.0000000000000000e+00  2.1834618330381039e-02  0.0000000000000000e+00  4.3420911092672786e-02  6.4514561211682253e-02  8.4878870923433825e-02  1.0428754944884885e-01  1.2252619011529041e-01  1.3939190722214836e-01  1.5469067867812103e-01  1.6823233768096829e-01  1.7982411879226248e-01  1.8926525662925742e-01  1.9634689651378290e-01  2.0086231993441381e-01  2.0263072355739470e-01  2.0153290190089779e-01  1.9755065492445001e-01  1.9079709559062508e-01  1.8152579145072797e-01  1.7011353597037857e-01  1.5702125562725569e-01  1.4274487510183126e-01  1.2776929062057657e-01  1.1253425306145010e-01  9.7414329872138258e-02  8.2709890592681065e-02  6.8644017329758986e-02  5.5360980844536875e-02  4.2924057699659512e-02  3.1312845795545378e-02  2.0422367713161090e-02  1.0067902861188768e-02  0.0000000000000000e+00  2.2924086863653319e-02  0.0000000000000000e+00  4.5554743385119195e-02  6.7603264029046706e-02  8.8790053846361364e-02  1.0884833468940416e-01  1.2752683082709962e-01  1.4459112884341233e-01  1.5982353783514758e-01  1.7302160428516319e-01  1.8399606156730111e-01  1.9256989581673112e-01  1.9858107634339028e-01  2.0189166367536282e-01  2.0240471425666082e-01  2.0008743145959165e-01  1.9499530024158968e-01  1.8728946421480927e-01  1.7724025011136563e-01  1.6521382320353226e-01  1.5164462545483909e-01  1.3700058413717212e-01  1.2174903875355696e-01  1.0632899438324404e-01  9.1131474403059451e-02  7.6486485077927283e-02  6.2653534348078632e-02  4.9812736428232952e-02  3.8054718638447275e-02  2.7369430408867235e-02  1.7636551687611971e-02  8.6235122310991379e-03  0.0000000000000000e+00  2.4306982183503207e-02  0.0000000000000000e+00  4.8270697120546387e-02  7.1553644452127890e-02  9.3829567520589241e-02  1.1478836255916126e-01  1.3414017210417140e-01  1.5161848161847669e-01  1.6698217419010036e-01  1.8001674638147439e-01  1.9053527636857809e-01  1.9838021443636047e-01  2.0342743748589387e-01  2.0559391941242516e-01  2.0484946565359285e-01  2.0123121275391270e-01  1.9485756977277335e-01  1.8593704306136188e-01  1.7476790232041758e-01  1.6172702182881524e-01  1.4724945517862242e-01  1.3180280492184013e-01  1.1586110550041548e-01  9.9881719576308647e-02  8.4286551697460382e-02  6.9446803722361561e-02  5.5669188908161797e-02  4.3181085491601018e-02  3.2112441625162462e-02  2.2473542563809661e-02  1.4130879132071558e-02  6.7895900763467656e-03  0.0000000000000000e+00  2.6033143339418082e-02  0.0000000000000000e+00  5.1667412731357255e-02  7.6511027995048789e-02  1.0018613836663183e-01  1.2233516023579800e-01  1.4262641708440524e-01  1.6075895378010249e-01  1.7646651486368700e-01  1.8952085254892190e-01  1.9973476117372699e-01  2.0696547234224602e-01  2.1111916960460059e-01  2.1215721553299860e-01  2.1010408122292559e-01  2.0505596761366596e-01  1.9718804622617611e-01  1.8675768088330946e-01  1.7410139038720143e-01  1.5962469353136208e-01  1.4378579714995954e-01  1.2707552036489825e-01  1.0999628442319986e-01  9.3042370496350127e-02  7.6682363238647799e-02  6.1343279557663298e-02  4.7394641925407405e-02  3.5129722030879211e-02  2.4740335610135829e-02  1.6281393645500974e-02  9.6238252196357808e-03  4.4039672033366999e-03  0.0000000000000000e+00  2.8158177934651155e-02  0.0000000000000000e+00  5.5854780404309266e-02  8.2636908800531969e-02  1.0806877212618050e-01  1.3173964498169749e-01  1.5327116653086678e-01  1.7232385947769541e-01  1.8860284144697870e-01  2.0186282168918396e-01  2.1191261001241443e-01  2.1861947438982982e-01  2.2191370057959905e-01  2.2179354783013649e-01  2.1833040948686003e-01  2.1167342973659012e-01  2.0205229438837011e-01  1.8977669030720018e-01  1.7523123478065408e-01  1.5886549851430465e-01  1.4117979131433078e-01  1.2270821760473954e-01  1.0400080976415217e-01  8.5606239221412611e-02  6.8055842823824764e-02  5.1848682953968384e-02  3.7436124230957678e-02  2.5202732329253137e-02  1.5437754251605981e-02  8.2878618511783263e-03  3.6790583349945766e-03  1.2024528788530285e-03  0.0000000000000000e+00  3.0744787828578379e-02  0.0000000000000000e+00  6.0956621474032129e-02  9.0113052175933128e-02  1.1771238796235964e-01  1.4328345544503396e-01  1.6639467372159442e-01  1.8666229792986186e-01  2.0375776258236641e-01  2.1741413776888630e-01  2.2743178999445293e-01  2.3368338734669386e-01  2.3611836871233050e-01  2.3476687310960251e-01  2.2974288911119667e-01  2.2124608388386638e-01  2.0956152129882158e-01  1.9505642533049894e-01  1.7817338926300100e-01  1.5941995153774124e-01  1.3935509658962142e-01  1.1857376832277913e-01  9.7690726655655549e-02  7.7324978053292373e-02  5.8085617545215788e-02  4.0559276811560852e-02  2.5298355518545659e-02  1.2807297916174966e-02  3.5200769280886160e-03  -2.2467619383547068e-03  -4.3979074637411136e-03  -3.2732142357669441e-03  0.0000000000000000e+00  3.3864351856199404e-02  0.0000000000000000e+00  6.7113865286021271e-02  9.9146289722369357e-02  1.2938426960163474e-01  1.5728710748493799e-01  1.8236175383733474e-01  2.0417284271689506e-01  2.2235165149967451e-01  2.3660392409467054e-01  2.4671654811642751e-01  2.5256309939114341e-01  2.5410824233849710e-01  2.5141088919452881e-01  2.4462588155849069e-01  2.3400380282667380e-01  2.1988842897718211e-01  2.0271135549973937e-01  1.8298354640539638e-01  1.6128391757147059e-01  1.3824550247598955e-01  1.1454013376557709e-01  9.0862816195889692e-02  6.7917040337758902e-02  4.6402231079428979e-02  2.7004388278458923e-02  1.0390697671852715e-02  -2.7919824484318335e-03  -1.1917985628038263e-02  -1.6397080009944134e-02  -1.5750712274230583e-02  -9.8974024225892861e-03  0.0000000000000000e+00  3.7598754296853006e-02  0.0000000000000000e+00  7.4488198037100758e-02  1.0997397162460176e-01  1.4339129256020744e-01  1.7411894898964209e-01  2.0159238569583357e-01  2.2531565316615162e-01  2.4487204357645795e-01  2.5993329034818446e-01  2.7026724939225699e-01  2.7574399753641771e-01  2.7634026591654698e-01  2.7214207005630109e-01  2.6334531578711645e-01  2.5025408234633706e-01  2.3327625756718395e-01  2.1291627148289013e-01  1.8976486758362260e-01  1.6448614909489992e-01  1.3780248635426309e-01  1.1047820202736661e-01  8.3303217674469882e-02  5.7078056973634807e-02  3.2601839386376889e-02  1.0665330285744273e-02  -7.9479776420439407e-03  -2.2447942316356079e-02  -3.2002957835917986e-02  -3.5672860457546189e-02  -3.2310459271614890e-02  -2.0565683198052229e-02  0.0000000000000000e+00  4.2042467290839707e-02  0.0000000000000000e+00  8.3266200927581996e-02  1.2287010612929875e-01  1.6008797985865234e-01  1.9420500970942858e-01  2.2457318537981091e-01  2.5062533711981011e-01  2.7188757114993356e-01  2.8798992739471113e-01  2.9867512957409659e-01  3.0380532054257037e-01  3.0336666815679419e-01  2.9747168816695652e-01  2.8635907338288463e-01  2.7039077122763960e-01  2.5004605441778366e-01  2.2591241928938027e-01  1.9867334060516845e-01  1.6909319554144589e-01  1.3799999848653427e-01  1.0626690915001176e-01  7.4793759101555474e-02  4.4490110826785959e-02  1.6261729556017790e-02  -8.9969331790638162e-03  -3.0399997948296335e-02  -4.7048851977541779e-02  -5.7973043154579164e-02  -6.1980944777117339e-02  -5.7252581174323185e-02  -4.0054871102416088e-02  0.0000000000000000e+00  </DataArray> 
</PointData> 
</Piece>
</UnstructuredGrid>
</VTKFile>