<?xml version="1.0"?>
<VTKFile type="UnstructuredGrid"  version="0.1"  >
<UnstructuredGrid>
<Piece  NumberOfPoints="298" NumberOfCells="526">
<Points>
<DataArray  type="Float64"  NumberOfComponents="3"  format="ascii">0.34375 0 0  0.375 0 0  0.375 0.03125 0  0.34375 0.03125 0  0.40625 0 0  0.40625 0.03125 0  0.4375 0 0  0.4375 0.03125 0  0.46875 0 0  0.46875 0.03125 0  0.5 0 0  0.5 0.03125 0  0.53125 0 0  0.53125 0.03125 0  0.5625 0 0  0.5625 0.03125 0  0.59375 0 0  0.59375 0.03125 0  0.625 0 0  0.625 0.03125 0  0.65625 0 0  0.65625 0.03125 0  0.6875 0 0  0.6875 0.03125 0  0.71875 0 0  0.71875 0.03125 0  0.75 0 0  0.75 0.03125 0  0.78125 0 0  0.78125 0.03125 0  0.8125 0 0  0.8125 0.03125 0  0.84375 0 0  0.84375 0.03125 0  0.875 0 0  0.875 0.03125 0  0.90625 0 0  0.90625 0.03125 0  0.9375 0 0  0.9375 0.03125 0  0.96875 0 0  0.96875 0.03125 0  1 0 0  1 0.03125 0  0.375 0.0625 0  0.40625 0.0625 0  0.4375 0.0625 0  0.46875 0.0625 0  0.5 0.0625 0  0.53125 0.0625 0  0.5625 0.0625 0  0.59375 0.0625 0  0.625 0.0625 0  0.65625 0.0625 0  0.6875 0.0625 0  0.71875 0.0625 0  0.75 0.0625 0  0.78125 0.0625 0  0.8125 0.0625 0  0.84375 0.0625 0  0.875 0.0625 0  0.90625 0.0625 0  0.9375 0.0625 0  0.96875 0.0625 0  1 0.0625 0  0.40625 0.09375 0  0.375 0.09375 0  0.4375 0.09375 0  0.46875 0.09375 0  0.5 0.09375 0  0.53125 0.09375 0  0.5625 0.09375 0  0.59375 0.09375 0  0.625 0.09375 0  0.65625 0.09375 0  0.6875 0.09375 0  0.71875 0.09375 0  0.75 0.09375 0  0.78125 0.09375 0  0.8125 0.09375 0  0.84375 0.09375 0  0.875 0.09375 0  0.90625 0.09375 0  0.9375 0.09375 0  0.96875 0.09375 0  1 0.09375 0  0.40625 0.125 0  0.4375 0.125 0  0.46875 0.125 0  0.5 0.125 0  0.53125 0.125 0  0.5625 0.125 0  0.59375 0.125 0  0.625 0.125 0  0.65625 0.125 0  0.6875 0.125 0  0.71875 0.125 0  0.75 0.125 0  0.78125 0.125 0  0.8125 0.125 0  0.84375 0.125 0  0.875 0.125 0  0.90625 0.125 0  0.9375 0.125 0  0.96875 0.125 0  1 0.125 0  0.4375 0.15625 0  0.46875 0.15625 0  0.5 0.15625 0  0.53125 0.15625 0  0.5625 0.15625 0  0.59375 0.15625 0  0.625 0.15625 0  0.65625 0.15625 0  0.6875 0.15625 0  0.71875 0.15625 0  0.75 0.15625 0  0.78125 0.15625 0  0.8125 0.15625 0  0.84375 0.15625 0  0.875 0.15625 0  0.90625 0.15625 0  0.9375 0.15625 0  0.96875 0.15625 0  1 0.15625 0  0.46875 0.1875 0  0.5 0.1875 0  0.53125 0.1875 0  0.5625 0.1875 0  0.59375 0.1875 0  0.625 0.1875 0  0.65625 0.1875 0  0.6875 0.1875 0  0.71875 0.1875 0  0.75 0.1875 0  0.78125 0.1875 0  0.8125 0.1875 0  0.84375 0.1875 0  0.875 0.1875 0  0.90625 0.1875 0  0.9375 0.1875 0  0.96875 0.1875 0  1 0.1875 0  0.5 0.21875 0  0.53125 0.21875 0  0.5625 0.21875 0  0.59375 0.21875 0  0.625 0.21875 0  0.65625 0.21875 0  0.6875 0.21875 0  0.71875 0.21875 0  0.75 0.21875 0  0.78125 0.21875 0  0.8125 0.21875 0  0.84375 0.21875 0  0.875 0.21875 0  0.90625 0.21875 0  0.9375 0.21875 0  0.96875 0.21875 0  1 0.21875 0  0.53125 0.25 0  0.5625 0.25 0  0.59375 0.25 0  0.625 0.25 0  0.65625 0.25 0  0.6875 0.25 0  0.71875 0.25 0  0.75 0.25 0  0.78125 0.25 0  0.8125 0.25 0  0.84375 0.25 0  0.875 0.25 0  0.90625 0.25 0  0.9375 0.25 0  0.96875 0.25 0  1 0.25 0  0.5625 0.28125 0  0.59375 0.28125 0  0.625 0.28125 0  0.65625 0.28125 0  0.6875 0.28125 0  0.71875 0.28125 0  0.75 0.28125 0  0.78125 0.28125 0  0.8125 0.28125 0  0.84375 0.28125 0  0.875 0.28125 0  0.90625 0.28125 0  0.9375 0.28125 0  0.96875 0.28125 0  1 0.28125 0  0.59375 0.3125 0  0.625 0.3125 0  0.65625 0.3125 0  0.6875 0.3125 0  0.71875 0.3125 0  0.75 0.3125 0  0.78125 0.3125 0  0.8125 0.3125 0  0.84375 0.3125 0  0.875 0.3125 0  0.90625 0.3125 0  0.9375 0.3125 0  0.96875 0.3125 0  1 0.3125 0  0.625 0.34375 0  0.65625 0.34375 0  0.6875 0.34375 0  0.71875 0.34375 0  0.75 0.34375 0  0.78125 0.34375 0  0.8125 0.34375 0  0.84375 0.34375 0  0.875 0.34375 0  0.90625 0.34375 0  0.9375 0.34375 0  0.96875 0.34375 0  1 0.34375 0  0.65625 0.375 0  0.6875 0.375 0  0.71875 0.375 0  0.75 0.375 0  0.78125 0.375 0  0.8125 0.375 0  0.84375 0.375 0  0.875 0.375 0  0.90625 0.375 0  0.9375 0.375 0  0.96875 0.375 0  1 0.375 0  0.6875 0.40625 0  0.71875 0.40625 0  0.75 0.40625 0  0.78125 0.40625 0  0.8125 0.40625 0  0.84375 0.40625 0  0.875 0.40625 0  0.90625 0.40625 0  0.9375 0.40625 0  0.96875 0.40625 0  1 0.40625 0  0.71875 0.4375 0  0.75 0.4375 0  0.78125 0.4375 0  0.8125 0.4375 0  0.84375 0.4375 0  0.875 0.4375 0  0.90625 0.4375 0  0.9375 0.4375 0  0.96875 0.4375 0  1 0.4375 0  0.75 0.46875 0  0.78125 0.46875 0  0.8125 0.46875 0  0.84375 0.46875 0  0.875 0.46875 0  0.90625 0.46875 0  0.9375 0.46875 0  0.96875 0.46875 0  1 0.46875 0  0.78125 0.5 0  0.75 0.5 0  0.8125 0.5 0  0.84375 0.5 0  0.875 0.5 0  0.90625 0.5 0  0.9375 0.5 0  0.96875 0.5 0  1 0.5 0  0.78125 0.53125 0  0.8125 0.53125 0  0.84375 0.53125 0  0.875 0.53125 0  0.90625 0.53125 0  0.9375 0.53125 0  0.96875 0.53125 0  1 0.53125 0  0.84375 0.5625 0  0.875 0.5625 0  0.90625 0.5625 0  0.9375 0.5625 0  0.96875 0.5625 0  1 0.5625 0  0.875 0.59375 0  0.90625 0.59375 0  0.9375 0.59375 0  0.96875 0.59375 0  1 0.59375 0  0.90625 0.625 0  0.9375 0.625 0  0.96875 0.625 0  1 0.625 0  0.9375 0.65625 0  0.96875 0.65625 0  1 0.65625 0  0.96875 0.6875 0  1 0.6875 0  1 0.71875 0  </DataArray>
</Points>
<Cells>
<DataArray  type="UInt32"  Name="connectivity"  format="ascii">0 1 2  0 3 2  1 4 5  1 2 5  4 6 7  4 5 7  6 8 9  6 7 9  8 10 11  8 9 11  10 12 13  10 11 13  12 14 15  12 13 15  14 16 17  14 15 17  16 18 19  16 17 19  18 20 21  18 19 21  20 22 23  20 21 23  22 24 25  22 23 25  24 26 27  24 25 27  26 28 29  26 27 29  28 30 31  28 29 31  30 32 33  30 31 33  32 34 35  32 33 35  34 36 37  34 35 37  36 38 39  36 37 39  38 40 41  38 39 41  40 42 43  40 41 43  3 2 44  2 5 45  2 44 45  5 7 46  5 45 46  7 9 47  7 46 47  9 11 48  9 47 48  11 13 49  11 48 49  13 15 50  13 49 50  15 17 51  15 50 51  17 19 52  17 51 52  19 21 53  19 52 53  21 23 54  21 53 54  23 25 55  23 54 55  25 27 56  25 55 56  27 29 57  27 56 57  29 31 58  29 57 58  31 33 59  31 58 59  33 35 60  33 59 60  35 37 61  35 60 61  37 39 62  37 61 62  39 41 63  39 62 63  41 43 64  41 63 64  44 45 65  44 66 65  45 46 67  45 65 67  46 47 68  46 67 68  47 48 69  47 68 69  48 49 70  48 69 70  49 50 71  49 70 71  50 51 72  50 71 72  51 52 73  51 72 73  52 53 74  52 73 74  53 54 75  53 74 75  54 55 76  54 75 76  55 56 77  55 76 77  56 57 78  56 77 78  57 58 79  57 78 79  58 59 80  58 79 80  59 60 81  59 80 81  60 61 82  60 81 82  61 62 83  61 82 83  62 63 84  62 83 84  63 64 85  63 84 85  66 65 86  65 67 87  65 86 87  67 68 88  67 87 88  68 69 89  68 88 89  69 70 90  69 89 90  70 71 91  70 90 91  71 72 92  71 91 92  72 73 93  72 92 93  73 74 94  73 93 94  74 75 95  74 94 95  75 76 96  75 95 96  76 77 97  76 96 97  77 78 98  77 97 98  78 79 99  78 98 99  79 80 100  79 99 100  80 81 101  80 100 101  81 82 102  81 101 102  82 83 103  82 102 103  83 84 104  83 103 104  84 85 105  84 104 105  86 87 106  87 88 107  87 106 107  88 89 108  88 107 108  89 90 109  89 108 109  90 91 110  90 109 110  91 92 111  91 110 111  92 93 112  92 111 112  93 94 113  93 112 113  94 95 114  94 113 114  95 96 115  95 114 115  96 97 116  96 115 116  97 98 117  97 116 117  98 99 118  98 117 118  99 100 119  99 118 119  100 101 120  100 119 120  101 102 121  101 120 121  102 103 122  102 121 122  103 104 123  103 122 123  104 105 124  104 123 124  106 107 125  107 108 126  107 125 126  108 109 127  108 126 127  109 110 128  109 127 128  110 111 129  110 128 129  111 112 130  111 129 130  112 113 131  112 130 131  113 114 132  113 131 132  114 115 133  114 132 133  115 116 134  115 133 134  116 117 135  116 134 135  117 118 136  117 135 136  118 119 137  118 136 137  119 120 138  119 137 138  120 121 139  120 138 139  121 122 140  121 139 140  122 123 141  122 140 141  123 124 142  123 141 142  125 126 143  126 127 144  126 143 144  127 128 145  127 144 145  128 129 146  128 145 146  129 130 147  129 146 147  130 131 148  130 147 148  131 132 149  131 148 149  132 133 150  132 149 150  133 134 151  133 150 151  134 135 152  134 151 152  135 136 153  135 152 153  136 137 154  136 153 154  137 138 155  137 154 155  138 139 156  138 155 156  139 140 157  139 156 157  140 141 158  140 157 158  141 142 159  141 158 159  143 144 160  144 145 161  144 160 161  145 146 162  145 161 162  146 147 163  146 162 163  147 148 164  147 163 164  148 149 165  148 164 165  149 150 166  149 165 166  150 151 167  150 166 167  151 152 168  151 167 168  152 153 169  152 168 169  153 154 170  153 169 170  154 155 171  154 170 171  155 156 172  155 171 172  156 157 173  156 172 173  157 158 174  157 173 174  158 159 175  158 174 175  160 161 176  161 162 177  161 176 177  162 163 178  162 177 178  163 164 179  163 178 179  164 165 180  164 179 180  165 166 181  165 180 181  166 167 182  166 181 182  167 168 183  167 182 183  168 169 184  168 183 184  169 170 185  169 184 185  170 171 186  170 185 186  171 172 187  171 186 187  172 173 188  172 187 188  173 174 189  173 188 189  174 175 190  174 189 190  176 177 191  177 178 192  177 191 192  178 179 193  178 192 193  179 180 194  179 193 194  180 181 195  180 194 195  181 182 196  181 195 196  182 183 197  182 196 197  183 184 198  183 197 198  184 185 199  184 198 199  185 186 200  185 199 200  186 187 201  186 200 201  187 188 202  187 201 202  188 189 203  188 202 203  189 190 204  189 203 204  191 192 205  192 193 206  192 205 206  193 194 207  193 206 207  194 195 208  194 207 208  195 196 209  195 208 209  196 197 210  196 209 210  197 198 211  197 210 211  198 199 212  198 211 212  199 200 213  199 212 213  200 201 214  200 213 214  201 202 215  201 214 215  202 203 216  202 215 216  203 204 217  203 216 217  205 206 218  206 207 219  206 218 219  207 208 220  207 219 220  208 209 221  208 220 221  209 210 222  209 221 222  210 211 223  210 222 223  211 212 224  211 223 224  212 213 225  212 224 225  213 214 226  213 225 226  214 215 227  214 226 227  215 216 228  215 227 228  216 217 229  216 228 229  218 219 230  219 220 231  219 230 231  220 221 232  220 231 232  221 222 233  221 232 233  222 223 234  222 233 234  223 224 235  223 234 235  224 225 236  224 235 236  225 226 237  225 236 237  226 227 238  226 237 238  227 228 239  227 238 239  228 229 240  228 239 240  230 231 241  231 232 242  231 241 242  232 233 243  232 242 243  233 234 244  233 243 244  234 235 245  234 244 245  235 236 246  235 245 246  236 237 247  236 246 247  237 238 248  237 247 248  238 239 249  238 248 249  239 240 250  239 249 250  241 242 251  242 243 252  242 251 252  243 244 253  243 252 253  244 245 254  244 253 254  245 246 255  245 254 255  246 247 256  246 255 256  247 248 257  247 256 257  248 249 258  248 257 258  249 250 259  249 258 259  251 252 260  251 261 260  252 253 262  252 260 262  253 254 263  253 262 263  254 255 264  254 263 264  255 256 265  255 264 265  256 257 266  256 265 266  257 258 267  257 266 267  258 259 268  258 267 268  261 260 269  260 262 270  260 269 270  262 263 271  262 270 271  263 264 272  263 271 272  264 265 273  264 272 273  265 266 274  265 273 274  266 267 275  266 274 275  267 268 276  267 275 276  270 271 277  271 272 278  271 277 278  272 273 279  272 278 279  273 274 280  273 279 280  274 275 281  274 280 281  275 276 282  275 281 282  277 278 283  278 279 284  278 283 284  279 280 285  279 284 285  280 281 286  280 285 286  281 282 287  281 286 287  283 284 288  284 285 289  284 288 289  285 286 290  285 289 290  286 287 291  286 290 291  288 289 292  289 290 293  289 292 293  290 291 294  290 293 294  292 293 295  293 294 296  293 295 296  295 296 297  </DataArray>
<DataArray  type="UInt32"  Name="offsets"  format="ascii">3 6 9 12 15 18 21 24 27 30 33 36 39 42 45 48 51 54 57 60 63 66 69 72 75 78 81 84 87 90 93 96 99 102 105 108 111 114 117 120 123 126 129 132 135 138 141 144 147 150 153 156 159 162 165 168 171 174 177 180 183 186 189 192 195 198 201 204 207 210 213 216 219 222 225 228 231 234 237 240 243 246 249 252 255 258 261 264 267 270 273 276 279 282 285 288 291 294 297 300 303 306 309 312 315 318 321 324 327 330 333 336 339 342 345 348 351 354 357 360 363 366 369 372 375 378 381 384 387 390 393 396 399 402 405 408 411 414 417 420 423 426 429 432 435 438 441 444 447 450 453 456 459 462 465 468 471 474 477 480 483 486 489 492 495 498 501 504 507 510 513 516 519 522 525 528 531 534 537 540 543 546 549 552 555 558 561 564 567 570 573 576 579 582 585 588 591 594 597 600 603 606 609 612 615 618 621 624 627 630 633 636 639 642 645 648 651 654 657 660 663 666 669 672 675 678 681 684 687 690 693 696 699 702 705 708 711 714 717 720 723 726 729 732 735 738 741 744 747 750 753 756 759 762 765 768 771 774 777 780 783 786 789 792 795 798 801 804 807 810 813 816 819 822 825 828 831 834 837 840 843 846 849 852 855 858 861 864 867 870 873 876 879 882 885 888 891 894 897 900 903 906 909 912 915 918 921 924 927 930 933 936 939 942 945 948 951 954 957 960 963 966 969 972 975 978 981 984 987 990 993 996 999 1002 1005 1008 1011 1014 1017 1020 1023 1026 1029 1032 1035 1038 1041 1044 1047 1050 1053 1056 1059 1062 1065 1068 1071 1074 1077 1080 1083 1086 1089 1092 1095 1098 1101 1104 1107 1110 1113 1116 1119 1122 1125 1128 1131 1134 1137 1140 1143 1146 1149 1152 1155 1158 1161 1164 1167 1170 1173 1176 1179 1182 1185 1188 1191 1194 1197 1200 1203 1206 1209 1212 1215 1218 1221 1224 1227 1230 1233 1236 1239 1242 1245 1248 1251 1254 1257 1260 1263 1266 1269 1272 1275 1278 1281 1284 1287 1290 1293 1296 1299 1302 1305 1308 1311 1314 1317 1320 1323 1326 1329 1332 1335 1338 1341 1344 1347 1350 1353 1356 1359 1362 1365 1368 1371 1374 1377 1380 1383 1386 1389 1392 1395 1398 1401 1404 1407 1410 1413 1416 1419 1422 1425 1428 1431 1434 1437 1440 1443 1446 1449 1452 1455 1458 1461 1464 1467 1470 1473 1476 1479 1482 1485 1488 1491 1494 1497 1500 1503 1506 1509 1512 1515 1518 1521 1524 1527 1530 1533 1536 1539 1542 1545 1548 1551 1554 1557 1560 1563 1566 1569 1572 1575 1578 </DataArray>
<DataArray  type="UInt8"  Name="types"  format="ascii">5 5 5 5 5 5 5 5 5 5 5 5 5 5 5 5 5 5 5 5 5 5 5 5 5 5 5 5 5 5 5 5 5 5 5 5 5 5 5 5 5 5 5 5 5 5 5 5 5 5 5 5 5 5 5 5 5 5 5 5 5 5 5 5 5 5 5 5 5 5 5 5 5 5 5 5 5 5 5 5 5 5 5 5 5 5 5 5 5 5 5 5 5 5 5 5 5 5 5 5 5 5 5 5 5 5 5 5 5 5 5 5 5 5 5 5 5 5 5 5 5 5 5 5 5 5 5 5 5 5 5 5 5 5 5 5 5 5 5 5 5 5 5 5 5 5 5 5 5 5 5 5 5 5 5 5 5 5 5 5 5 5 5 5 5 5 5 5 5 5 5 5 5 5 5 5 5 5 5 5 5 5 5 5 5 5 5 5 5 5 5 5 5 5 5 5 5 5 5 5 5 5 5 5 5 5 5 5 5 5 5 5 5 5 5 5 5 5 5 5 5 5 5 5 5 5 5 5 5 5 5 5 5 5 5 5 5 5 5 5 5 5 5 5 5 5 5 5 5 5 5 5 5 5 5 5 5 5 5 5 5 5 5 5 5 5 5 5 5 5 5 5 5 5 5 5 5 5 5 5 5 5 5 5 5 5 5 5 5 5 5 5 5 5 5 5 5 5 5 5 5 5 5 5 5 5 5 5 5 5 5 5 5 5 5 5 5 5 5 5 5 5 5 5 5 5 5 5 5 5 5 5 5 5 5 5 5 5 5 5 5 5 5 5 5 5 5 5 5 5 5 5 5 5 5 5 5 5 5 5 5 5 5 5 5 5 5 5 5 5 5 5 5 5 5 5 5 5 5 5 5 5 5 5 5 5 5 5 5 5 5 5 5 5 5 5 5 5 5 5 5 5 5 5 5 5 5 5 5 5 5 5 5 5 5 5 5 5 5 5 5 5 5 5 5 5 5 5 5 5 5 5 5 5 5 5 5 5 5 5 5 5 5 5 5 5 5 5 5 5 5 5 5 5 5 5 5 5 5 5 5 5 5 5 5 5 5 5 5 5 5 5 5 5 5 5 5 5 5 5 5 5 5 5 5 5 5 5 5 5 5 5 5 5 5 5 5 5 5 5 5 5 5 5 5 5 5 5 5 5 5 5 5 5 5 5 5 5 5 5 5 5 5 5 5 5 </DataArray>
</Cells>
<PointData  Scalars="f_10"> 
<DataArray  type="Float64"  Name="f_10"  format="ascii">3.0385615900007873e-01  3.0341116853111372e-01  2.7638593792299415e-01  2.7579607740565437e-01  2.9750750253825736e-01  2.7217888650081445e-01  2.8638419270307747e-01  2.6337117003987537e-01  2.7040372146796215e-01  2.5026742196311513e-01  2.5004605441778444e-01  2.3327625756718467e-01  2.2589946904905922e-01  2.1290293186611348e-01  1.9864822128497714e-01  1.8973901333086507e-01  1.6905738117014643e-01  1.6444933265038786e-01  1.3795549811221619e-01  1.3775681434781728e-01  1.0621607069250465e-01  1.1042612215813115e-01  7.4739069146878057e-02  8.3247304362123367e-02  4.4434018739831785e-02  5.7020826756263986e-02  1.6206513244013329e-02  3.2545613831959509e-02  -9.0492543217094382e-03  1.0612150749496205e-02  -3.0447706685413255e-02  -7.9963890822205962e-03  -4.7090542704362325e-02  -2.2490186772422954e-02  -5.8007608333636301e-02  -3.2037940761841077e-02  -6.2007548886419073e-02  -3.5699761247330590e-02  -5.7270630843789937e-02  -3.2328698172592263e-02  -4.0063987866374599e-02  -2.0574891890887511e-02  0.0000000000000000e+00  0.0000000000000000e+00  2.5415752592213192e-01  2.5145080617333365e-01  2.4465401624635891e-01  2.3401835278580391e-01  2.1988842897718278e-01  2.0269680554061059e-01  1.8295541171752949e-01  1.6124400059266700e-01  1.3819621889235595e-01  1.1448424432692626e-01  9.0803167393318812e-02  6.7856353156499863e-02  4.6342956436176926e-02  2.6948629014345509e-02  1.0340184969062598e-02  -2.8358750494285392e-03  -1.1954206860273356e-02  -1.6424857217900785e-02  -1.5769508721705978e-02  -9.9068815278553716e-03  0.0000000000000000e+00  2.3481227525217407e-01  2.3617399513937837e-01  2.2977508028267071e-01  2.2126279415356911e-01  2.0956152129882227e-01  1.9503971506079767e-01  1.7814119809152815e-01  1.5937454939517082e-01  1.3929947016257474e-01  1.1851124663736157e-01  9.7624638134539282e-02  7.7258393394730535e-02  5.8021196713594909e-02  4.0499209468088743e-02  2.5244369263476011e-02  1.2760706399813112e-02  3.4818449114124082e-03  -2.2759522435796924e-03  -4.4175980228589127e-03  -3.2831255121729738e-03  0.0000000000000000e+00  2.2184731520074641e-01  2.1836883648086766e-01  2.1169347729374569e-01  2.0205229438837080e-01  1.8975664275004589e-01  1.7519280778664761e-01  1.5881173114369579e-01  1.4111459425048103e-01  1.2263581702638744e-01  1.0392526837935637e-01  8.5531132859416867e-02  6.7984105871318978e-02  5.1782589660042448e-02  3.7377355073659163e-02  2.5152478844246321e-02  1.5396829849033384e-02  8.2568006105890462e-03  3.6581941847365065e-03  1.1919774525915566e-03  0.0000000000000000e+00  2.1015150249539913e-01  2.0508085830620731e-01  1.9718804622617694e-01  1.8673279019076960e-01  1.7405396911472926e-01  1.5955898053099826e-01  1.4370711688776727e-01  1.2698943155998504e-01  1.0990789269461784e-01  9.2955918812727092e-02  7.6601097077239624e-02  6.1269510004131292e-02  4.7329911668797242e-02  3.5074998465568850e-02  2.4696186636384659e-02  1.6248128151509802e-02  9.6015960219597626e-03  4.3928409715038204e-03  0.0000000000000000e+00  2.0126285365820912e-01  1.9485756977277410e-01  1.8590540215706705e-01  1.7470803134591673e-01  1.6164496091589414e-01  1.4715260873193978e-01  1.3169862986670128e-01  1.1575611860365535e-01  9.9780986532018681e-02  8.4193616132136537e-02  6.9363899534300319e-02  5.5597567445147378e-02  4.3121338761551005e-02  3.2064764490515839e-02  2.2437921707559490e-02  1.4107218713982477e-02  6.7777899033032380e-03  0.0000000000000000e+00  1.9499530024159048e-01  1.8724880080278070e-01  1.7716385822752942e-01  1.6511032775286921e-01  1.5152435711059739e-01  1.3687358483923215e-01  1.2162364340583408e-01  1.0621121444642177e-01  9.1025065323371651e-02  7.6393406999665930e-02  6.2574523488398162e-02  4.9747808958289681e-02  3.8003539998493603e-02  2.7331554330949366e-02  1.7611561493029393e-02  8.6110985173316387e-03  0.0000000000000000e+00  1.9074504589963009e-01  1.8142870032784983e-01  1.6998351000289452e-01  1.5687249523655789e-01  1.4259073468318065e-01  1.2762030472755767e-01  1.1239742884870114e-01  9.7293458371469008e-02  8.2606381781816507e-02  6.8557812994369499e-02  5.5291291508570407e-02  4.2869853991247896e-02  3.1273140903818893e-02  2.0396359975296503e-02  1.0055039117384101e-02  0.0000000000000000e+00  1.8746063974300900e-01  1.7623978128580620e-01  1.6319064588250881e-01  1.4886709752746938e-01  1.3379357313191181e-01  1.1842438064225362e-01  1.0312544976991966e-01  8.8172283417968261e-02  7.3755639137076945e-02  5.9988452601729969e-02  4.6911036379126525e-02  3.4494673633717367e-02  2.2645665358645664e-02  1.1212689835020651e-02  0.0000000000000000e+00  1.8374169284993908e-01  1.7036923559207892e-01  1.5562624930309571e-01  1.4010586207318046e-01  1.2429764627259547e-01  1.0857131944088513e-01  9.3183929307298394e-02  7.8296929401106080e-02  6.3993277294530623e-02  5.0290320310276436e-02  3.7148599178407161e-02  2.4478869345038862e-02  1.2150037929411458e-02  0.0000000000000000e+00  1.7814285753471984e-01  1.6266188846465832e-01  1.4641207114067062e-01  1.2993237537687657e-01  1.1360241357312394e-01  9.7661833962764691e-02  8.2241549950068812e-02  6.7392573442262391e-02  5.3106775586577504e-02  3.9330056691206067e-02  2.5971045320504711e-02  1.2908560543684828e-02  0.0000000000000000e+00  1.6961333103003154e-01  1.5244724509297131e-01  1.3515018341193569e-01  1.1811466911006366e-01  1.0156246872995230e-01  8.5592087262149300e-02  7.0220421173406336e-02  5.5411424624199117e-02  4.1092989780316246e-02  2.7166472475551470e-02  1.3513104021670120e-02  0.0000000000000000e+00  1.5783789799119533e-01  1.3969247017970854e-01  1.2194287745819254e-01  1.0479287270304112e-01  8.8308539048370702e-02  7.2472746887349629e-02  5.7221270174997542e-02  4.2462733855378659e-02  2.8088404640276111e-02  1.3977297489266242e-02  0.0000000000000000e+00  1.4325628519263728e-01  1.2488876243146192e-01  1.0723298082108762e-01  9.0326554039090248e-02  7.4122613090717410e-02  5.8532182721577015e-02  4.3446473235707148e-02  2.8746625025684293e-02  1.4307560135063006e-02  0.0000000000000000e+00  1.2676115881559391e-01  1.0876416143005600e-01  9.1578148227738118e-02  7.5135702110267807e-02  5.9330684338294630e-02  4.4042042934221606e-02  2.9143432777243732e-02  1.4506162220849246e-02  0.0000000000000000e+00  1.0929876117049875e-01  1.2742009074629596e-01  9.2011758815511421e-02  7.5484262269261929e-02  5.9603846013514129e-02  4.4244888823457361e-02  2.9278166387400835e-02  1.4573473994355716e-02  0.0000000000000000e+00  1.0880295309539702e-01  9.1607186786493891e-02  7.5157069891168590e-02  5.9346058638350102e-02  4.4052647343323925e-02  2.9150091238236843e-02  1.4509374324629946e-02  0.0000000000000000e+00  7.4163218319270238e-02  5.8561545459425594e-02  4.3466805720017529e-02  2.8759427094602975e-02  1.4313746074292744e-02  0.0000000000000000e+00  5.7262128509155512e-02  4.2491203985004340e-02  2.8106409642112837e-02  1.3986020131802500e-02  0.0000000000000000e+00  4.1127567856164157e-02  2.7188466585186259e-02  1.3523795482007061e-02  0.0000000000000000e+00  2.5995717737434979e-02  1.2920601878777523e-02  0.0000000000000000e+00  1.2162833130523392e-02  0.0000000000000000e+00  0.0000000000000000e+00  </DataArray> 
</PointData> 
</Piece>
</UnstructuredGrid>
</VTKFile>