<?xml version="1.0"?>
<VTKFile type="UnstructuredGrid"  version="0.1"  >
<UnstructuredGrid>
<Piece  NumberOfPoints="561" NumberOfCells="1024">
<Points>
<DataArray  type="Float64"  NumberOfComponents="3"  format="ascii">0 0 0  0.03125 0 0  0.03125 0.03125 0  0 0.03125 0  0.0625 0 0  0.0625 0.03125 0  0.09375 0 0  0.09375 0.03125 0  0.125 0 0  0.125 0.03125 0  0.15625 0 0  0.15625 0.03125 0  0.1875 0 0  0.1875 0.03125 0  0.21875 0 0  0.21875 0.03125 0  0.25 0 0  0.25 0.03125 0  0.28125 0 0  0.28125 0.03125 0  0.3125 0 0  0.3125 0.03125 0  0.34375 0 0  0.34375 0.03125 0  0.375 0 0  0.375 0.03125 0  0.40625 0 0  0.40625 0.03125 0  0.4375 0 0  0.4375 0.03125 0  0.46875 0 0  0.46875 0.03125 0  0.5 0 0  0.5 0.03125 0  0.53125 0 0  0.53125 0.03125 0  0.5625 0 0  0.5625 0.03125 0  0.59375 0 0  0.59375 0.03125 0  0.625 0 0  0.625 0.03125 0  0.65625 0 0  0.65625 0.03125 0  0.6875 0 0  0.6875 0.03125 0  0.71875 0 0  0.71875 0.03125 0  0.75 0 0  0.75 0.03125 0  0.78125 0 0  0.78125 0.03125 0  0.8125 0 0  0.8125 0.03125 0  0.84375 0 0  0.84375 0.03125 0  0.875 0 0  0.875 0.03125 0  0.90625 0 0  0.90625 0.03125 0  0.9375 0 0  0.9375 0.03125 0  0.96875 0 0  0.96875 0.03125 0  1 0 0  1 0.03125 0  0.03125 0.0625 0  0 0.0625 0  0.0625 0.0625 0  0.09375 0.0625 0  0.125 0.0625 0  0.15625 0.0625 0  0.1875 0.0625 0  0.21875 0.0625 0  0.25 0.0625 0  0.28125 0.0625 0  0.3125 0.0625 0  0.34375 0.0625 0  0.375 0.0625 0  0.40625 0.0625 0  0.4375 0.0625 0  0.46875 0.0625 0  0.5 0.0625 0  0.53125 0.0625 0  0.5625 0.0625 0  0.59375 0.0625 0  0.625 0.0625 0  0.65625 0.0625 0  0.6875 0.0625 0  0.71875 0.0625 0  0.75 0.0625 0  0.78125 0.0625 0  0.8125 0.0625 0  0.84375 0.0625 0  0.875 0.0625 0  0.90625 0.0625 0  0.9375 0.0625 0  0.96875 0.0625 0  1 0.0625 0  0.03125 0.09375 0  0 0.09375 0  0.0625 0.09375 0  0.09375 0.09375 0  0.125 0.09375 0  0.15625 0.09375 0  0.1875 0.09375 0  0.21875 0.09375 0  0.25 0.09375 0  0.28125 0.09375 0  0.3125 0.09375 0  0.34375 0.09375 0  0.375 0.09375 0  0.40625 0.09375 0  0.4375 0.09375 0  0.46875 0.09375 0  0.5 0.09375 0  0.53125 0.09375 0  0.5625 0.09375 0  0.59375 0.09375 0  0.625 0.09375 0  0.65625 0.09375 0  0.6875 0.09375 0  0.71875 0.09375 0  0.75 0.09375 0  0.78125 0.09375 0  0.8125 0.09375 0  0.84375 0.09375 0  0.875 0.09375 0  0.90625 0.09375 0  0.9375 0.09375 0  0.96875 0.09375 0  1 0.09375 0  0.03125 0.125 0  0 0.125 0  0.0625 0.125 0  0.09375 0.125 0  0.125 0.125 0  0.15625 0.125 0  0.1875 0.125 0  0.21875 0.125 0  0.25 0.125 0  0.28125 0.125 0  0.3125 0.125 0  0.34375 0.125 0  0.375 0.125 0  0.40625 0.125 0  0.4375 0.125 0  0.46875 0.125 0  0.5 0.125 0  0.53125 0.125 0  0.5625 0.125 0  0.59375 0.125 0  0.625 0.125 0  0.65625 0.125 0  0.6875 0.125 0  0.71875 0.125 0  0.75 0.125 0  0.78125 0.125 0  0.8125 0.125 0  0.84375 0.125 0  0.875 0.125 0  0.90625 0.125 0  0.9375 0.125 0  0.96875 0.125 0  1 0.125 0  0.03125 0.15625 0  0 0.15625 0  0.0625 0.15625 0  0.09375 0.15625 0  0.125 0.15625 0  0.15625 0.15625 0  0.1875 0.15625 0  0.21875 0.15625 0  0.25 0.15625 0  0.28125 0.15625 0  0.3125 0.15625 0  0.34375 0.15625 0  0.375 0.15625 0  0.40625 0.15625 0  0.4375 0.15625 0  0.46875 0.15625 0  0.5 0.15625 0  0.53125 0.15625 0  0.5625 0.15625 0  0.59375 0.15625 0  0.625 0.15625 0  0.65625 0.15625 0  0.6875 0.15625 0  0.71875 0.15625 0  0.75 0.15625 0  0.78125 0.15625 0  0.8125 0.15625 0  0.84375 0.15625 0  0.875 0.15625 0  0.90625 0.15625 0  0.9375 0.15625 0  0.96875 0.15625 0  1 0.15625 0  0.03125 0.1875 0  0 0.1875 0  0.0625 0.1875 0  0.09375 0.1875 0  0.125 0.1875 0  0.15625 0.1875 0  0.1875 0.1875 0  0.21875 0.1875 0  0.25 0.1875 0  0.28125 0.1875 0  0.3125 0.1875 0  0.34375 0.1875 0  0.375 0.1875 0  0.40625 0.1875 0  0.4375 0.1875 0  0.46875 0.1875 0  0.5 0.1875 0  0.53125 0.1875 0  0.5625 0.1875 0  0.59375 0.1875 0  0.625 0.1875 0  0.65625 0.1875 0  0.6875 0.1875 0  0.71875 0.1875 0  0.75 0.1875 0  0.78125 0.1875 0  0.8125 0.1875 0  0.84375 0.1875 0  0.875 0.1875 0  0.90625 0.1875 0  0.9375 0.1875 0  0.96875 0.1875 0  1 0.1875 0  0.03125 0.21875 0  0 0.21875 0  0.0625 0.21875 0  0.09375 0.21875 0  0.125 0.21875 0  0.15625 0.21875 0  0.1875 0.21875 0  0.21875 0.21875 0  0.25 0.21875 0  0.28125 0.21875 0  0.3125 0.21875 0  0.34375 0.21875 0  0.375 0.21875 0  0.40625 0.21875 0  0.4375 0.21875 0  0.46875 0.21875 0  0.5 0.21875 0  0.53125 0.21875 0  0.5625 0.21875 0  0.59375 0.21875 0  0.625 0.21875 0  0.65625 0.21875 0  0.6875 0.21875 0  0.71875 0.21875 0  0.75 0.21875 0  0.78125 0.21875 0  0.8125 0.21875 0  0.84375 0.21875 0  0.875 0.21875 0  0.90625 0.21875 0  0.9375 0.21875 0  0.96875 0.21875 0  1 0.21875 0  0.03125 0.25 0  0 0.25 0  0.0625 0.25 0  0.09375 0.25 0  0.125 0.25 0  0.15625 0.25 0  0.1875 0.25 0  0.21875 0.25 0  0.25 0.25 0  0.28125 0.25 0  0.3125 0.25 0  0.34375 0.25 0  0.375 0.25 0  0.40625 0.25 0  0.4375 0.25 0  0.46875 0.25 0  0.5 0.25 0  0.53125 0.25 0  0.5625 0.25 0  0.59375 0.25 0  0.625 0.25 0  0.65625 0.25 0  0.6875 0.25 0  0.71875 0.25 0  0.75 0.25 0  0.78125 0.25 0  0.8125 0.25 0  0.84375 0.25 0  0.875 0.25 0  0.90625 0.25 0  0.9375 0.25 0  0.96875 0.25 0  1 0.25 0  0.03125 0.28125 0  0 0.28125 0  0.0625 0.28125 0  0.09375 0.28125 0  0.125 0.28125 0  0.15625 0.28125 0  0.1875 0.28125 0  0.21875 0.28125 0  0.25 0.28125 0  0.28125 0.28125 0  0.3125 0.28125 0  0.34375 0.28125 0  0.375 0.28125 0  0.40625 0.28125 0  0.4375 0.28125 0  0.46875 0.28125 0  0.5 0.28125 0  0.53125 0.28125 0  0.5625 0.28125 0  0.59375 0.28125 0  0.625 0.28125 0  0.65625 0.28125 0  0.6875 0.28125 0  0.71875 0.28125 0  0.75 0.28125 0  0.78125 0.28125 0  0.8125 0.28125 0  0.84375 0.28125 0  0.875 0.28125 0  0.90625 0.28125 0  0.9375 0.28125 0  0.96875 0.28125 0  1 0.28125 0  0.03125 0.3125 0  0 0.3125 0  0.0625 0.3125 0  0.09375 0.3125 0  0.125 0.3125 0  0.15625 0.3125 0  0.1875 0.3125 0  0.21875 0.3125 0  0.25 0.3125 0  0.28125 0.3125 0  0.3125 0.3125 0  0.34375 0.3125 0  0.375 0.3125 0  0.40625 0.3125 0  0.4375 0.3125 0  0.46875 0.3125 0  0.5 0.3125 0  0.53125 0.3125 0  0.5625 0.3125 0  0.59375 0.3125 0  0.625 0.3125 0  0.65625 0.3125 0  0.6875 0.3125 0  0.71875 0.3125 0  0.75 0.3125 0  0.78125 0.3125 0  0.8125 0.3125 0  0.84375 0.3125 0  0.875 0.3125 0  0.90625 0.3125 0  0.9375 0.3125 0  0.96875 0.3125 0  1 0.3125 0  0.03125 0.34375 0  0 0.34375 0  0.0625 0.34375 0  0.09375 0.34375 0  0.125 0.34375 0  0.15625 0.34375 0  0.1875 0.34375 0  0.21875 0.34375 0  0.25 0.34375 0  0.28125 0.34375 0  0.3125 0.34375 0  0.34375 0.34375 0  0.375 0.34375 0  0.40625 0.34375 0  0.4375 0.34375 0  0.46875 0.34375 0  0.5 0.34375 0  0.53125 0.34375 0  0.5625 0.34375 0  0.59375 0.34375 0  0.625 0.34375 0  0.65625 0.34375 0  0.6875 0.34375 0  0.71875 0.34375 0  0.75 0.34375 0  0.78125 0.34375 0  0.8125 0.34375 0  0.84375 0.34375 0  0.875 0.34375 0  0.90625 0.34375 0  0.9375 0.34375 0  0.96875 0.34375 0  1 0.34375 0  0.03125 0.375 0  0.0625 0.375 0  0.09375 0.375 0  0.125 0.375 0  0.15625 0.375 0  0.1875 0.375 0  0.21875 0.375 0  0.25 0.375 0  0.28125 0.375 0  0.3125 0.375 0  0.34375 0.375 0  0.375 0.375 0  0.40625 0.375 0  0.4375 0.375 0  0.46875 0.375 0  0.5 0.375 0  0.53125 0.375 0  0.5625 0.375 0  0.59375 0.375 0  0.625 0.375 0  0.65625 0.375 0  0.6875 0.375 0  0.71875 0.375 0  0.75 0.375 0  0.78125 0.375 0  0.8125 0.375 0  0.84375 0.375 0  0.875 0.375 0  0.90625 0.375 0  0.9375 0.375 0  0.96875 0.375 0  1 0.375 0  0.0625 0.40625 0  0.09375 0.40625 0  0.125 0.40625 0  0.15625 0.40625 0  0.1875 0.40625 0  0.21875 0.40625 0  0.25 0.40625 0  0.28125 0.40625 0  0.3125 0.40625 0  0.34375 0.40625 0  0.375 0.40625 0  0.40625 0.40625 0  0.4375 0.40625 0  0.46875 0.40625 0  0.5 0.40625 0  0.53125 0.40625 0  0.5625 0.40625 0  0.59375 0.40625 0  0.625 0.40625 0  0.65625 0.40625 0  0.6875 0.40625 0  0.71875 0.40625 0  0.75 0.40625 0  0.78125 0.40625 0  0.8125 0.40625 0  0.84375 0.40625 0  0.875 0.40625 0  0.90625 0.40625 0  0.9375 0.40625 0  0.96875 0.40625 0  1 0.40625 0  0.09375 0.4375 0  0.125 0.4375 0  0.15625 0.4375 0  0.1875 0.4375 0  0.21875 0.4375 0  0.25 0.4375 0  0.28125 0.4375 0  0.3125 0.4375 0  0.34375 0.4375 0  0.375 0.4375 0  0.40625 0.4375 0  0.4375 0.4375 0  0.46875 0.4375 0  0.5 0.4375 0  0.53125 0.4375 0  0.5625 0.4375 0  0.59375 0.4375 0  0.625 0.4375 0  0.65625 0.4375 0  0.6875 0.4375 0  0.71875 0.4375 0  0.75 0.4375 0  0.78125 0.4375 0  0.8125 0.4375 0  0.84375 0.4375 0  0.875 0.4375 0  0.90625 0.4375 0  0.9375 0.4375 0  0.96875 0.4375 0  1 0.4375 0  0.25 0.46875 0  0.28125 0.46875 0  0.3125 0.46875 0  0.34375 0.46875 0  0.375 0.46875 0  0.40625 0.46875 0  0.4375 0.46875 0  0.46875 0.46875 0  0.5 0.46875 0  0.53125 0.46875 0  0.5625 0.46875 0  0.59375 0.46875 0  0.625 0.46875 0  0.65625 0.46875 0  0.6875 0.46875 0  0.71875 0.46875 0  0.75 0.46875 0  0.78125 0.46875 0  0.8125 0.46875 0  0.84375 0.46875 0  0.875 0.46875 0  0.90625 0.46875 0  0.9375 0.46875 0  0.96875 0.46875 0  1 0.46875 0  0.40625 0.5 0  0.4375 0.5 0  0.46875 0.5 0  0.5 0.5 0  0.53125 0.5 0  0.5625 0.5 0  0.59375 0.5 0  0.625 0.5 0  0.65625 0.5 0  0.6875 0.5 0  0.71875 0.5 0  0.75 0.5 0  0.78125 0.5 0  0.8125 0.5 0  0.84375 0.5 0  0.875 0.5 0  0.90625 0.5 0  0.9375 0.5 0  0.96875 0.5 0  1 0.5 0  0.5 0.53125 0  0.53125 0.53125 0  0.5625 0.53125 0  0.59375 0.53125 0  0.625 0.53125 0  0.65625 0.53125 0  0.6875 0.53125 0  0.71875 0.53125 0  0.75 0.53125 0  0.78125 0.53125 0  0.8125 0.53125 0  0.84375 0.53125 0  0.875 0.53125 0  0.90625 0.53125 0  0.9375 0.53125 0  0.96875 0.53125 0  1 0.53125 0  0.90625 0.5625 0  0.9375 0.5625 0  0.96875 0.5625 0  1 0.5625 0  0.9375 0.59375 0  0.96875 0.59375 0  1 0.59375 0  0.96875 0.625 0  1 0.625 0  1 0.65625 0  </DataArray>
</Points>
<Cells>
[...]
<PointData  Scalars="f_10"> 
<DataArray  type="Float64"  Name="f_10"  format="ascii">0.0000000000000000e+00  4.2051584054798335e-02  3.7607962989688416e-02  0.0000000000000000e+00  8.3284250597048956e-02  7.4506436938078346e-02  1.2289671023860083e-01  1.1000087241438654e-01  1.6012254503770995e-01  1.4342627548613102e-01  1.9424670043624975e-01  1.7416119344570954e-01  2.2462089411692862e-01  2.0164079713601096e-01  2.5067765826245647e-01  2.2536883270240049e-01  2.7194278746193878e-01  2.4492826913087612e-01  2.8804601948166630e-01  2.5999052056555622e-01  2.9872981952877503e-01  2.7032316270460433e-01  3.0385615900007851e-01  2.7579607740565426e-01  3.0341116853111355e-01  2.7638593792299398e-01  2.9750750253825731e-01  2.7217888650081451e-01  2.8638419270307752e-01  2.6337117003987554e-01  2.7040372146796238e-01  2.5026742196311530e-01  2.5004605441778460e-01  2.3327625756718490e-01  2.2589946904905944e-01  2.1290293186611375e-01  1.9864822128497731e-01  1.8973901333086521e-01  1.6905738117014654e-01  1.6444933265038800e-01  1.3795549811221625e-01  1.3775681434781736e-01  1.0621607069250473e-01  1.1042612215813120e-01  7.4739069146878084e-02  8.3247304362123367e-02  4.4434018739831799e-02  5.7020826756263986e-02  1.6206513244013340e-02  3.2545613831959523e-02  -9.0492543217094296e-03  1.0612150749496209e-02  -3.0447706685413245e-02  -7.9963890822205893e-03  -4.7090542704362325e-02  -2.2490186772422951e-02  -5.8007608333636280e-02  -3.2037940761841077e-02  -6.2007548886419066e-02  -3.5699761247330590e-02  -5.7270630843789930e-02  -3.2328698172592263e-02  -4.0063987866374599e-02  -2.0574891890887511e-02  0.0000000000000000e+00  0.0000000000000000e+00  3.3873830961465609e-02  0.0000000000000000e+00  6.7132661733496871e-02  9.9174066930326335e-02  1.2942049083387031e-01  1.5733100008593523e-01  1.8241226654012554e-01  2.0422860198100926e-01  2.2241092614292735e-01  2.3666461127593044e-01  2.4677619691899941e-01  2.5261898882979539e-01  2.5415752592213187e-01  2.5145080617333371e-01  2.4465401624635910e-01  2.3401835278580413e-01  2.1988842897718300e-01  2.0269680554061079e-01  1.8295541171752963e-01  1.6124400059266711e-01  1.3819621889235609e-01  1.1448424432692637e-01  9.0803167393318840e-02  6.7856353156499905e-02  4.6342956436176946e-02  2.6948629014345526e-02  1.0340184969062605e-02  -2.8358750494285388e-03  -1.1954206860273360e-02  -1.6424857217900789e-02  -1.5769508721705978e-02  -9.9068815278553716e-03  0.0000000000000000e+00  3.0754699104984521e-02  0.0000000000000000e+00  6.0976312033150140e-02  9.0142242481158444e-02  1.1775061997903626e-01  1.4333004696139628e-01  1.6644865997666469e-01  1.8672236527333472e-01  2.0382218341398814e-01  2.1748072242744906e-01  2.2749787851557030e-01  2.3374590903211251e-01  2.3617399513937842e-01  2.3481227525217424e-01  2.2977508028267099e-01  2.2126279415356934e-01  2.0956152129882252e-01  1.9503971506079779e-01  1.7814119809152829e-01  1.5937454939517096e-01  1.3929947016257482e-01  1.1851124663736166e-01  9.7624638134539324e-02  7.7258393394730535e-02  5.8021196713594896e-02  4.0499209468088743e-02  2.5244369263476004e-02  1.2760706399813105e-02  3.4818449114124047e-03  -2.2759522435796967e-03  -4.4175980228589153e-03  -3.2831255121729755e-03  0.0000000000000000e+00  2.8168653360912742e-02  0.0000000000000000e+00  5.5875644554567561e-02  8.2667970041121586e-02  1.0810969652875353e-01  1.3178989846670486e-01  1.5332993568816591e-01  1.7238995277162206e-01  1.8867457839948537e-01  2.0193792805118077e-01  2.1198815139721142e-01  2.1869187496818313e-01  2.2197889764345011e-01  2.2184731520074663e-01  2.1836883648086797e-01  2.1169347729374596e-01  2.0205229438837105e-01  1.8975664275004600e-01  1.7519280778664767e-01  1.5881173114369587e-01  1.4111459425048103e-01  1.2263581702638754e-01  1.0392526837935634e-01  8.5531132859416811e-02  6.7984105871318951e-02  5.1782589660042434e-02  3.7377355073659142e-02  2.5152478844246304e-02  1.5396829849033377e-02  8.2568006105890393e-03  3.6581941847365004e-03  1.1919774525915531e-03  0.0000000000000000e+00  2.6044269571251083e-02  0.0000000000000000e+00  5.1689641929033490e-02  7.6544293489040321e-02  1.0023028734038347e-01  1.2238988380110895e-01  1.4269114734101612e-01  1.6083272333363530e-01  1.7654778102509616e-01  1.8960730423254615e-01  1.9982315290231034e-01  2.0705156114716061e-01  2.1119784986679432e-01  2.1222292853336386e-01  2.1015150249539924e-01  2.0508085830620737e-01  1.9718804622617697e-01  1.8673279019076960e-01  1.7405396911472928e-01  1.5955898053099823e-01  1.4370711688776722e-01  1.2698943155998504e-01  1.0990789269461780e-01  9.2955918812727037e-02  7.6601097077239555e-02  6.1269510004131243e-02  4.7329911668797194e-02  3.5074998465568830e-02  2.4696186636384652e-02  1.6248128151509784e-02  9.6015960219597504e-03  4.3928409715038152e-03  0.0000000000000000e+00  2.4318782356546848e-02  0.0000000000000000e+00  4.8294357538635715e-02  7.1589265308378447e-02  9.3877244655236364e-02  1.1484810928921192e-01  1.3421179356718657e-01  1.5170138580653889e-01  1.6707510975542533e-01  1.8011747942576564e-01  1.9064026326533962e-01  1.9848438949150077e-01  2.0352428393257804e-01  2.0567598032534784e-01  2.0490933662809516e-01  2.0126285365820912e-01  1.9485756977277419e-01  1.8590540215706702e-01  1.7470803134591673e-01  1.6164496091589406e-01  1.4715260873193969e-01  1.3169862986670117e-01  1.1575611860365523e-01  9.9780986532018598e-02  8.4193616132136495e-02  6.9363899534300277e-02  5.5597567445147336e-02  4.3121338761550977e-02  3.2064764490515825e-02  2.2437921707559455e-02  1.4107218713982454e-02  6.7777899033032284e-03  0.0000000000000000e+00  2.2936500577420936e-02  0.0000000000000000e+00  4.5579733579702020e-02  6.7641140106964939e-02  8.8841232486315591e-02  1.0891326215934811e-01  1.2760584168678091e-01  1.4468420692167461e-01  1.5992994691483642e-01  1.7313938422198669e-01  1.8412145691502529e-01  1.9269689511467256e-01  1.9870134468763356e-01  2.0199515912602750e-01  2.0248110614049855e-01  2.0012809487162173e-01  1.9499530024159045e-01  1.8724880080278061e-01  1.7716385822752936e-01  1.6511032775286907e-01  1.5152435711059720e-01  1.3687358483923195e-01  1.2162364340583393e-01  1.0621121444642170e-01  9.1025065323371596e-02  7.6393406999665861e-02  6.2574523488398093e-02  4.9747808958289633e-02  3.8003539998493548e-02  2.7331554330949321e-02  1.7611561493029358e-02  8.6110985173316248e-03  0.0000000000000000e+00  2.1847482074185832e-02  0.0000000000000000e+00  4.3446918830537619e-02  6.4554266103409100e-02  8.4933074631845976e-02  1.0435723878481598e-01  1.2261239445068074e-01  1.3949541603301388e-01  1.5481155017879131e-01  1.6836916189371845e-01  1.7997310468528274e-01  1.8941939704790950e-01  1.9649565690448217e-01  2.0099234590189938e-01  2.0272781468027429e-01  2.0158495159189424e-01  1.9755065492445079e-01  1.9074504589963001e-01  1.8142870032784975e-01  1.6998351000289436e-01  1.5687249523655766e-01  1.4259073468318037e-01  1.2762030472755742e-01  1.1239742884870103e-01  9.7293458371468911e-02  8.2606381781816410e-02  6.8557812994369388e-02  5.5291291508570317e-02  4.2869853991247819e-02  3.1273140903818830e-02  2.0396359975296458e-02  1.0055039117384082e-02  0.0000000000000000e+00  2.1006499238103066e-02  0.0000000000000000e+00  4.1806154794948133e-02  6.2195789431531659e-02  8.1979092816788710e-02  1.0096881551809651e-01  1.1898723544864806e-01  1.3586397599944086e-01  1.5143020065322960e-01  1.6550869043914715e-01  1.7790083404586624e-01  1.8837433866557812e-01  1.9665873978313547e-01  2.0245741891762600e-01  2.0548210518147397e-01  2.0550760728371620e-01  2.0243346960887526e-01  1.9633159834030220e-01  1.8746063974300881e-01  1.7623978128580592e-01  1.6319064588250853e-01  1.4886709752746910e-01  1.3379357313191156e-01  1.1842438064225345e-01  1.0312544976991951e-01  8.8172283417968095e-02  7.3755639137076820e-02  5.9988452601729858e-02  4.6911036379126435e-02  3.4494673633717297e-02  2.2645665358645612e-02  1.1212689835020625e-02  0.0000000000000000e+00  2.0372340414130656e-02  0.0000000000000000e+00  4.0575332630830421e-02  6.0443355557854045e-02  7.9817735937649681e-02  9.8548819496301676e-02  1.1649589959860950e-01  1.3352356012427094e-01  1.4949266794587340e-01  1.6424469675949538e-01  1.7758018668930622e-01  1.8923647555683859e-01  1.9887535812819107e-01  2.0609467478364366e-01  2.1047440777514290e-01  2.1165542118857766e-01  2.0943143862094232e-01  2.0382217277669759e-01  1.9509759221023751e-01  1.8374169284993874e-01  1.7036923559207856e-01  1.5562624930309546e-01  1.4010586207318018e-01  1.2429764627259519e-01  1.0857131944088487e-01  9.3183929307298158e-02  7.8296929401105900e-02  6.3993277294530471e-02  5.0290320310276339e-02  3.7148599178407071e-02  2.4478869345038807e-02  1.2150037929411432e-02  0.0000000000000000e+00  1.9907493388156190e-02  0.0000000000000000e+00  3.9679333406291456e-02  5.9184029944895584e-02  7.8297904728053119e-02  9.6907495363867543e-02  1.1490940899846101e-01  1.3220551658034044e-01  1.4869064540788612e-01  1.6423022625950415e-01  1.7862815117675465e-01  1.9159142298558013e-01  2.0270674837266262e-01  2.1145007099785207e-01  2.1724600535275809e-01  2.1957631372666531e-01  2.1811040754920757e-01  2.1281129014361272e-01  2.0397263348833694e-01  1.9216956014489278e-01  1.7814285753471956e-01  1.6266188846465807e-01  1.4641207114067037e-01  1.2993237537687630e-01  1.1360241357312363e-01  9.7661833962764455e-02  8.2241549950068618e-02  6.7392573442262252e-02  5.3106775586577386e-02  3.9330056691205977e-02  2.5971045320504652e-02  1.2908560543684798e-02  0.0000000000000000e+00  1.9578238567057996e-02  3.9050231621000173e-02  5.8314627411860762e-02  7.7279377013001874e-02  9.5864870872800573e-02  1.1400416994477434e-01  1.3163745947412248e-01  1.4869657802420422e-01  1.6507550346531782e-01  1.8058617301392915e-01  1.9490765184033010e-01  2.0754893577775857e-01  2.1785471801028145e-01  2.2507897431461354e-01  2.2852718122481078e-01  2.2773149583088040e-01  2.2259520531836771e-01  2.1344501909184377e-01  2.0096669833954656e-01  1.8605112954769312e-01  1.6961333103003121e-01  1.5244724509297103e-01  1.3515018341193547e-01  1.1811466911006341e-01  1.0156246872995210e-01  8.5592087262149133e-02  7.0220421173406183e-02  5.5411424624199006e-02  4.1092989780316148e-02  2.7166472475551418e-02  1.3513104021670091e-02  0.0000000000000000e+00  3.8628351475764468e-02  5.7743498360900446e-02  7.6635549640595074e-02  9.5254712958933868e-02  1.1356736907467765e-01  1.3155018967439697e-01  1.4917190355213975e-01  1.6635685004696937e-01  1.8292859155683028e-01  1.9854286998278389e-01  2.1263540758434130e-01  2.2442265249584803e-01  2.3298888522547592e-01  2.3746267635945148e-01  2.3723827570859768e-01  2.3216034237268032e-01  2.2259242274929997e-01  2.0933699811092479e-01  1.9344185895044505e-01  1.7597344462524700e-01  1.5783789799119499e-01  1.3969247017970823e-01  1.2194287745819229e-01  1.0479287270304090e-01  8.8308539048370521e-02  7.2472746887349504e-02  5.7221270174997438e-02  4.2462733855378583e-02  2.8088404640276062e-02  1.3977297489266214e-02  0.0000000000000000e+00  5.7393560702814143e-02  7.6258287336413863e-02  9.4931996002494759e-02  1.1340819063927880e-01  1.3169416714791721e-01  1.4979066248380091e-01  1.6764959159323800e-01  1.8510702986787614e-01  2.0180169147757149e-01  2.1710893362592112e-01  2.3013624156047957e-01  2.3982148016024879e-01  2.4513918828977274e-01  2.4536294935449010e-01  2.4028627919701379e-01  2.3030598269152588e-01  2.1632865477100216e-01  1.9954177705508341e-01  1.8114633216228782e-01  1.6214782990011345e-01  1.4325628519263700e-01  1.2488876243146163e-01  1.0723298082108744e-01  9.0326554039090109e-02  7.4122613090717285e-02  5.8532182721576897e-02  4.3446473235707071e-02  2.8746625025684244e-02  1.4307560135062977e-02  0.0000000000000000e+00  1.5027623773657758e-01  1.6858265190516916e-01  1.8662882024974645e-01  2.0404367783694616e-01  2.2016328643616431e-01  2.3402214238815841e-01  2.4445853441444054e-01  2.5034108784443942e-01  2.5085952822811824e-01  2.4577105242778871e-01  2.3549461493417975e-01  2.2100851249624956e-01  2.0359714586477487e-01  1.8455520470594633e-01  1.6495757427136590e-01  1.4555119145142481e-01  1.2676115881559369e-01  1.0876416143005582e-01  9.1578148227737979e-02  7.5135702110267710e-02  5.9330684338294533e-02  4.4042042934221544e-02  2.9143432777243697e-02  1.4506162220849213e-02  0.0000000000000000e+00  2.3537333215240022e-01  2.4608086782445429e-01  2.5217219988539830e-01  2.5280550599614149e-01  2.4772262939460293e-01  2.3734812217958481e-01  2.2268444789759914e-01  2.0505041536736679e-01  1.8577502508351562e-01  1.6595929923628325e-01  1.4636468219310567e-01  1.2742009074629576e-01  1.0929876117049855e-01  9.2011758815511283e-02  7.5484262269261845e-02  5.9603846013514074e-02  4.4244888823457319e-02  2.9278166387400825e-02  1.4573473994355695e-02  0.0000000000000000e+00  2.5085952822811813e-01  2.4580831968528338e-01  2.3556227049749973e-01  2.2109510263030710e-01  2.0369012910103926e-01  1.8464408914973673e-01  1.6503563203673446e-01  1.4561556807232928e-01  1.2681190845017196e-01  1.0880295309539686e-01  9.1607186786493780e-02  7.5157069891168521e-02  5.9346058638350060e-02  4.4052647343323897e-02  2.9150091238236829e-02  1.4509374324629933e-02  0.0000000000000000e+00  4.3466805720017501e-02  2.8759427094602961e-02  1.4313746074292737e-02  0.0000000000000000e+00  2.8106409642112806e-02  1.3986020131802491e-02  0.0000000000000000e+00  1.3523795482007052e-02  0.0000000000000000e+00  0.0000000000000000e+00  </DataArray> 
</PointData> 
</Piece>
</UnstructuredGrid>
</VTKFile>